8000
step:0 columns:species,position,radius dt:1 cell:20.431286614,20.431286614,20.431286614 
1 4.387812 -7.713140 -9.379731 0.7
0 3.044936 -3.707712 5.938862 0.5
1 1.562937 -5.658145 -6.200982 0.7
1 0.172734 -4.947768 8.154029 0.7
0 -1.438461 -8.257392 1.029481 0.5
0 4.742240 -0.458021 5.129837 0.5
1 9.989560 7.350895 9.144821 0.7
1 -6.884921 7.221661 10.113062 0.7
1 -4.108106 -10.162241 -2.829774 0.7
0 4.618279 -4.092294 2.641535 0.5
1 1.919920 -7.488168 -6.471997 0.7
0 -7.554396 -2.353958 -8.163323 0.5
1 4.942448 -6.204807 4.573806 0.7
0 -9.506311 -5.292341 -2.695230 0.5
0 4.378807 -8.820159 6.597171 0.5
1 0.936104 -3.895044 -9.993507 0.7
0 5.268158 8.924985 -9.107061 0.5
0 -0.681318 3.327910 3.045900 0.5
0 0.349124 3.220747 -5.382851 0.5
0 5.623185 4.576061 3.304754 0.5
0 -6.104607 5.310073 1.436160 0.5
1 5.098832 -2.357441 -5.904907 0.7
1 7.658496 10.007231 8.845220 0.7
0 -1.458133 -5.046828 4.305959 0.5
0 4.215277 9.292688 0.332616 0.5
0 4.716786 -5.488743 7.526915 0.5
0 -7.588764 -1.402474 -8.353790 0.5
1 4.599741 9.152889 7.218335 0.7
0 -3.797030 8.035806 7.268120 0.5
1 1.082742 7.174750 -9.323515 0.7
0 -4.551344 8.400687 2.423308 0.5
1 6.423734 -8.356135 2.941613 0.7
0 6.370508 -5.762361 -2.433297 0.5
0 0.392338 -2.080827 -7.758564 0.5
1 6.673941 -3.580910 3.682418 0.7
0 6.936257 -8.243615 6.015203 0.5
0 -1.580554 1.129259 -7.179894 0.5
1 5.173328 -5.336383 -9.678654 0.7
0 9.312717 -8.847371 8.823907 0.5
1 8.266898 6.021950 7.849113 0.7
0 2.183002 -4.343330 -9.917217 0.5
1 -9.689664 9.338754 9.007159 0.7
1 -2.400123 -7.969418 1.332350 0.7
0 -6.015545 7.084226 -9.559965 0.5
0 7.190036 1.425100 8.362043 0.5
1 -3.298767 8.823612 -7.359512 0.7
0 -1.196615 -6.054934 8.140544 0.5
1 -0.767247 2.155659 6.686788 0.7
1 1.631827 7.306376 2.224428 0.7
0 -4.406324 -4.754896 2.205445 0.5
1 -2.205812 -6.193976 8.359345 0.7
0 5.493193 -7.029472 -6.123863 0.5
1 2.488726 -7.747551 7.733179 0.7
0 1.189392 -8.191259 -1.817286 0.5
1 1.886224 1.985277 5.736827 0.7
1 -8.875967 -4.227684 -6.070960 0.7
0 -7.219850 8.258494 -7.638386 0.5
1 -7.680426 8.320174 -8.649730 0.7
1 -7.765748 1.520324 -7.006465 0.7
1 9.863984 -3.752131 8.658905 0.7
1 1.485788 -3.233900 -0.408457 0.7
0 -8.546618 -5.863345 -6.698582 0.5
1 -4.718359 9.510432 -7.079936 0.7
1 -2.294257 9.957005 0.056370 0.7
1 -6.152251 -8.760872 9.828454 0.7
1 -7.911607 -10.065635 -4.369746 0.7
1 -2.284128 6.014440 8.177764 0.7
1 -4.133436 -3.375603 -9.589240 0.7
0 -0.795357 7.268295 8.554738 0.5
0 3.037102 -5.748257 -8.680180 0.5
1 0.548184 -6.425671 -9.152763 0.7
0 10.096413 1.283422 4.094182 0.5
0 3.876048 6.782732 -2.643615 0.5
0 5.748835 -8.870379 5.764405 0.5
1 2.184022 -4.925005 -0.614384 0.7
0 5.917049 -9.508961 1.511177 0.5
0 -9.380182 9.432729 -8.603121 0.5
1 7.153886 9.789730 -9.826477 0.7
0 -7.313224 9.674372 -6.946033 0.5
0 -1.982670 -5.577112 -7.778352 0.5
0 0.027560 8.512131 -3.640712 0.5
1 -6.571270 6.369024 5.746936 0.7
1 -8.905621 -10.109556 9.565629 0.7
1 -1.210360 -10.117049 8.131455 0.7
0 -1.898953 -8.407535 4.507180 0.5
1 -6.387163 -5.123463 9.566167 0.7
1 6.552062 -3.866798 9.689971 0.7
0 5.553086 6.561434 5.783769 0.5
1 1.069252 -6.627104 8.818572 0.7
1 9.152112 -2.165204 9.810045 0.7
0 -4.051130 -9.491376 3.542702 0.5
1 5.336343 -9.393420 6.668390 0.7
1 9.599416 9.879509 9.650094 0.7
1 5.611967 9.672879 4.496529 0.7
1 -4.045371 -1.674779 9.542128 0.7
1 -5.329826 -4.601910 8.765087 0.7
0 5.725126 -8.469972 -7.487594 0.5
1 4.198391 5.797926 2.766638 0.7
0 -0.700895 3.636961 -9.851300 0.5
0 -7.564997 -8.150309 -0.773026 0.5
1 -5.461966 -2.987024 8.059485 0.7
1 -4.034222 -0.836632 6.522664 0.7
1 -5.921873 9.440357 -3.153122 0.7
0 6.664558 -7.371404 -5.160712 0.5
0 4.148686 -6.939430 4.205037 0.5
1 -1.620361 -0.354679 9.453925 0.7
1 -0.817146 -6.110495 1.648287 0.7
1 -1.104252 9.079053 -9.755698 0.7
1 5.868821 -9.486274 4.842040 0.7
0 -0.442190 -7.722660 4.338571 0.5
0 0.613418 -10.080874 -7.455685 0.5
1 -7.233844 -1.482953 -3.214997 0.7
1 5.859770 -4.777620 9.038790 0.7
1 3.965219 -3.901657 -5.619769 0.7
0 1.923554 6.341360 1.921298 0.5
1 -5.351599 5.859029 -2.379919 0.7
0 -9.366266 -7.773818 8.347353 0.5
0 9.917292 -9.698545 0.560216 0.5
0 -7.375750 -4.190836 6.868382 0.5
1 1.389355 -4.818964 8.570315 0.7
1 -5.204217 -0.752354 -7.244010 0.7
0 7.725507 4.178645 0.037799 0.5
0 -8.721157 6.943358 8.718353 0.5
1 0.094550 0.336449 -6.915374 0.7
0 -5.023444 -0.163620 -5.189499 0.5
0 4.053464 -1.845783 -3.252506 0.5
1 -2.388047 -6.923020 -10.201896 0.7
1 3.877581 -0.492162 8.798092 0.7
0 -6.888452 -7.512278 6.643505 0.5
0 4.470947 -3.097746 5.683901 0.5
0 -1.678853 -4.084958 9.125919 0.5
1 -6.976693 4.477964 -9.555506 0.7
1 1.702626 0.441881 4.673608 0.7
1 -9.060382 -2.304804 -5.346324 0.7
0 -4.315319 5.073213 -8.165130 0.5
1 6.135140 -1.899004 -3.482312 0.7
0 -8.581394 -4.282365 5.534578 0.5
0 -0.878349 -5.260152 8.314935 0.5
0 -7.615350 -7.056595 9.757699 0.5
1 -2.005765 -7.292889 -8.994891 0.7
0 -0.527680 -4.638721 -6.760519 0.5
1 -1.922690 -5.102303 8.844798 0.7
0 -9.694733 -9.784146 5.083240 0.5
1 -0.369249 -7.107316 -1.692255 0.7
0 3.304626 -3.357058 8.739311 0.5
0 3.412500 5.990536 -1.412526 0.5
0 -8.795584 -8.530971 8.291924 0.5
1 4.724524 -4.412207 8.360309 0.7
1 -0.918144 1.385587 5.761254 0.7
0 2.160476 -4.776517 5.569159 0.5
0 4.127173 -2.708088 7.404300 0.5
0 -8.965460 -8.076111 6.755016 0.5
1 5.426403 2.649503 -9.035338 0.7
0 -7.471682 -1.863643 8.018487 0.5
0 -2.906491 -3.131752 -2.666191 0.5
1 8.726373 0.147476 -6.169472 0.7
1 6.163086 -1.439684 -8.852805 0.7
1 9.669272 4.043611 9.648197 0.7
1 -2.150788 -0.485804 -7.159764 0.7
1 -0.832405 -3.875350 -9.805206 0.7
1 9.043945 -6.898736 9.775574 0.7
0 -4.545526 -6.397816 -7.278681 0.5
0 -5.789108 -4.759881 1.408977 0.5
0 -5.611075 -9.596211 7.075262 0.5
1 -6.217284 -3.543883 -6.590660 0.7
0 -4.862982 -8.951444 3.636529 0.5
0 -3.148056 1.215216 -5.187726 0.5
0 -6.313969 3.579458 -1.224637 0.5
1 1.805379 0.815366 -6.145551 0.7
1 -0.802378 -7.191898 2.410262 0.7
0 5.140886 -2.608084 -4.815587 0.5
0 2.743700 2.957772 -1.461229 0.5
1 7.937976 4.400220 -4.491978 0.7
0 -8.500948 -8.984666 -7.763785 0.5
1 5.809594 -3.015459 -6.819287 0.7
1 9.902423 -1.598360 4.121623 0.7
1 8.640699 2.466837 -2.174267 0.7
1 -2.544662 10.055445 5.217295 0.7
1 9.844552 6.093303 9.411466 0.7
1 -6.020064 -1.701003 -3.648007 0.7
1 -3.235051 6.260180 -2.875046 0.7
0 -6.501174 -0.264120 -7.158230 0.5
0 -9.436856 6.765870 -3.644463 0.5
1 -2.967936 -0.793905 -9.334711 0.7
1 0.575588 -3.641197 5.942373 0.7
1 5.900880 -1.833011 -4.997699 0.7
0 -8.407290 4.447476 3.765876 0.5
0 6.817078 -4.709651 1.662959 0.5
1 -3.439290 -3.406447 -4.272691 0.7
1 10.092884 -2.930335 9.766065 0.7
1 -6.737391 -6.379087 9.782977 0.7
1 5.184911 -3.405810 5.008197 0.7
0 -0.190806 3.619788 2.231881 0.5
0 4.302880 3.010550 -8.268635 0.5
0 -0.754759 -2.683392 -10.102988 0.5
0 -8.729809 2.677851 -0.444701 0.5
1 -9.247292 0.702553 -8.234552 0.7
1 -8.048769 6.027112 -5.038215 0.7
0 0.207106 8.994605 -5.659027 0.5
0 -6.693810 -8.245194 9.014330 0.5
1 1.228209 0.788919 -2.792126 0.7
0 9.533683 -6.479936 3.917296 0.5
1 -4.744836 3.704222 7.341780 0.7
0 2.770587 6.790079 -5.961355 0.5
1 -1.234112 -2.825997 -9.232223 0.7
0 -4.772599 0.658279 -5.389665 0.5
1 -3.645433 3.058564 6.870763 0.7
1 8.175724 1.222603 -8.335675 0.7
0 -2.655172 2.835698 -0.355746 0.5
1 10.090571 -0.043826 -6.663808 0.7
0 -6.198392 -5.061651 8.453561 0.5
0 -5.906545 -1.305475 8.657171 0.5
0 3.557117 -0.739058 -7.121090 0.5
1 0.475157 0.327770 4.651717 0.7
0 7.651159 -9.866536 2.601468 0.5
0 0.588119 1.465958 -10.178627 0.5
0 -9.297733 6.528219 2.179138 0.5
1 4.905937 -0.319789 0.675229 0.7
0 -7.474934 7.962570 9.472930 0.5
0 -5.981014 -2.752938 -3.367342 0.5
1 -4.807021 -1.581056 7.234974 0.7
0 -0.368350 6.779509 -1.409113 0.5
0 2.615998 -7.056899 5.879084 0.5
1 0.065527 0.184968 7.155372 0.7
1 -4.011796 -0.077912 3.938177 0.7
1 -4.465090 -6.751608 3.136095 0.7
0 -1.758713 1.746141 5.191819 0.5
1 2.915916 -4.809703 -7.943834 0.7
1 2.345546 -0.324057 6.844717 0.7
1 7.502575 1.078440 -5.104949 0.7
0 -2.194795 -8.638014 2.152703 0.5
1 8.624106 7.721031 -2.933808 0.7
1 6.420089 3.300065 -5.231814 0.7
0 4.728417 -4.597026 -7.259776 0.5
0 4.264499 -0.253034 -7.418605 0.5
1 -7.978452 0.643238 -6.072733 0.7
1 6.485851 9.744771 9.533508 0.7
0 -8.551031 3.118382 8.529441 0.5
0 -2.979089 5.243594 -0.741189 0.5
1 -3.437064 3.827959 -4.264273 0.7
0 6.243237 7.371573 0.607580 0.5
1 -6.425182 3.493282 7.765936 0.7
0 5.927144 -4.121866 8.209411 0.5
0 -2.338955 -2.044928 6.368630 0.5
0 -0.831225 -2.256232 3.350186 0.5
1 2.186030 -1.582791 6.606416 0.7
1 0.469063 -2.302683 6.516675 0.7
1 3.371705 0.646547 8.417512 0.7
1 7.890610 -2.650522 4.800703 0.7
1 3.363285 1.912175 6.962042 0.7
1 3.209571 -2.115584 7.276469 0.7
0 4.982524 -8.622046 -5.918987 0.5
1 1.727427 3.276084 -8.562984 0.7
0 -2.911281 -3.176312 2.045516 0.5
1 -3.926914 -8.886337 -2.591690 0.7
1 9.417256 6.441788 4.397717 0.7
1 -9.646966 7.797376 10.192932 0.7
1 -4.666127 5.220873 -5.991573 0.7
0 1.652287 -5.493432 0.131056 0.5
0 -10.044530 6.925321 7.774733 0.5
0 -1.926137 -1.023108 0.125175 0.5
0 9.499160 8.656776 6.679578 0.5
1 3.011675 3.663349 4.342152 0.7
1 -5.018485 7.125989 -6.805695 0.7
1 -6.763642 3.640587 -7.113271 0.7
0 -9.642828 -7.641589 -6.637247 0.5
0 5.566348 -7.673438 3.254671 0.5
0 3.011525 1.317980 3.069845 0.5
0 7.034023 -9.845000 5.021421 0.5
1 9.403130 9.873479 1.930344 0.7
1 8.523166 2.190300 4.427614 0.7
0 8.144357 -7.375892 -3.910497 0.5
0 -0.061312 8.890696 -2.732910 0.5
1 9.378415 -0.863269 -5.928189 0.7
1 6.213712 7.131674 -7.723536 0.7
1 9.641668 9.855767 8.356300 0.7
1 8.126432 5.973896 1.252251 0.7
0 -9.511499 -1.911723 7.869747 0.5
1 -5.670460 8.628739 3.718603 0.7
0 -3.505906 -5.258612 -9.299215 0.5
0 0.519441 3.590774 6.333886 0.5
1 8.581287 -9.450782 -2.987919 0.7
1 7.192478 1.055473 2.528073 0.7
1 -3.160745 1.120836 6.464910 0.7
1 -3.407405 3.025974 5.033929 0.7
0 6.986167 -1.229829 3.790797 0.5
0 4.673768 2.383984 7.581860 0.5
0 2.467589 -3.557867 8.711277 0.5
0 -2.865159 -8.505028 -2.387243 0.5
1 -8.735204 0.144089 9.285769 0.7
1 9.634898 -1.141441 9.085810 0.7
1 8.415659 5.880502 6.372279 0.7
1 9.597371 0.850279 -10.064911 0.7
0 8.063254 -2.195348 9.658565 0.5
0 6.490195 6.930966 1.427315 0.5
0 -5.606540 8.713170 4.877527 0.5
0 0.743769 -4.861786 -7.488439 0.5
0 -8.509101 6.394231 9.379755 0.5
1 1.492427 5.053062 6.911668 0.7
1 7.518542 2.416950 8.855167 0.7
0 -2.434266 10.094039 -1.873111 0.5
0 -8.720057 -0.249134 -8.318551 0.5
0 -2.887432 5.994997 -0.230785 0.5
0 -8.539348 3.544323 -5.897872 0.5
0 4.420323 4.485337 6.421928 0.5
1 -1.373619 1.917351 -1.136664 0.7
1 0.170018 2.096064 -8.201081 0.7
1 -1.893353 7.266809 7.953880 0.7
1 1.256327 8.524287 0.380751 0.7
0 3.397676 10.084490 1.492527 0.5
1 2.049472 8.012132 7.561607 0.7
0 -0.391043 -1.830275 6.246966 0.5
1 -3.655526 -6.663827 -8.031736 0.7
1 5.719875 7.734329 8.694473 0.7
1 -3.452937 7.068006 5.499044 0.7
1 -3.684969 -3.768178 -7.603845 0.7
1 -6.985682 1.911004 4.973514 0.7
1 -8.636032 5.885722 3.598831 0.7
1 0.321029 6.870910 -8.477301 0.7
1 -3.891837 -6.558547 6.958798 0.7
1 -7.722995 6.272591 -2.971839 0.7
0 8.457187 3.251245 4.006872 0.5
1 -0.039053 -5.613394 -7.337349 0.7
0 7.590652 5.143845 6.120246 0.5
1 8.816225 4.731933 -7.894551 0.7
1 1.638316 1.810329 10.214921 0.7
1 -7.653953 7.282207 -9.318271 0.7
0 -0.177762 -0.472671 4.960349 0.5
1 -7.105045 -1.353273 10.073604 0.7
0 -7.572412 -3.832454 7.676798 0.5
1 5.495930 2.957470 8.047738 0.7
0 6.477133 0.334568 5.720988 0.5
0 -1.874693 -4.785487 2.656234 0.5
0 9.221867 -0.233682 1.704350 0.5
0 6.090940 2.181934 -0.403791 0.5
1 4.668572 6.659004 5.133725 0.7
1 -1.280233 -7.813136 -6.930193 0.7
0 6.816536 -8.514835 -6.296588 0.5
1 -6.169199 -2.692298 -8.202818 0.7
0 3.278004 0.775274 -6.588892 0.5
1 -5.155472 1.413378 -6.116935 0.7
1 0.526370 -3.076732 8.741854 0.7
1 -3.652358 5.018324 8.380883 0.7
1 -0.221877 -4.640671 -8.027598 0.7
0 -0.406650 2.462508 7.673647 0.5
0 -2.007194 8.035562 -5.415236 0.5
0 -1.144942 0.010806 -1.832803 0.5
1 8.240278 -6.863419 -1.784220 0.7
0 4.099210 1.331924 5.144332 0.5
0 6.471194 0.047755 -8.363830 0.5
1 4.670407 -8.423768 -6.971711 0.7
0 2.177254 9.964573 -2.629216 0.5
1 -9.702850 -8.443585 3.945635 0.7
1 -6.823412 5.577600 -7.570577 0.7
1 -1.733638 9.260459 8.225609 0.7
1 -8.163811 5.151123 5.526660 0.7
1 -3.855205 7.250453 -8.513603 0.7
0 -9.172826 9.389777 10.200474 0.5
0 2.192905 4.055819 -9.182486 0.5
0 -1.650276 1.146868 3.677437 0.5
1 -6.940819 6.846337 2.186230 0.7
0 4.087038 8.352748 7.563313 0.5
0 -6.012917 -10.147353 -9.166633 0.5
1 -0.262003 9.295977 -8.815224 0.7
1 -1.737289 6.963382 10.113959 0.7
0 -0.818982 7.215017 7.621620 0.5
0 6.409621 -0.136743 4.925357 0.5
1 -2.688039 1.304063 9.397549 0.7
1 4.997143 8.612296 4.843847 0.7
1 5.995937 -6.461826 -5.407220 0.7
0 7.769737 3.632097 6.669834 0.5
0 9.463344 6.064304 -2.561487 0.5
0 -5.135490 2.561006 0.259448 0.5
1 -8.637920 -1.319179 7.478045 0.7
0 0.898696 -8.582168 -5.447716 0.5
1 -5.832485 -7.412057 -7.099602 0.7
0 10.093060 6.417637 8.440131 0.5
1 -3.634081 -6.852222 -6.797509 0.7
0 -1.911602 4.665218 6.297005 0.5
0 -9.236706 -0.430584 10.052742 0.5
1 0.091488 8.805843 4.798736 0.7
0 0.659989 -9.686781 -2.004842 0.5
1 0.530412 -4.304665 9.267342 0.7
0 0.207656 -8.162993 5.248136 0.5
0 -6.664504 6.631083 -7.493786 0.5
1 7.196674 4.395044 -5.433858 0.7
1 3.361092 6.531838 -3.636808 0.7
1 9.535002 -8.710065 -6.580841 0.7
1 9.493335 9.059729 -9.276877 0.7
0 3.778651 -9.838556 -8.204777 0.5
0 7.979938 3.053390 4.722665 0.5
0 6.373148 6.472332 0.670095 0.5
0 -8.187025 -2.898132 -7.794612 0.5
1 6.352988 -8.718940 6.704998 0.7
1 -0.075589 -6.938303 9.338260 0.7
1 -6.822272 7.785302 1.303898 0.7
0 2.099498 8.650119 -1.793681 0.5
1 -4.115301 8.734100 8.022707 0.7
1 -5.370796 5.544200 9.585806 0.7
1 -3.797127 9.580136 4.369244 0.7
0 0.351748 5.845588 2.115537 0.5
0 -8.170146 7.217605 -4.862638 0.5
1 -4.728355 -6.232433 10.210039 0.7
1 8.611012 7.398133 2.895021 0.7
1 -3.428150 4.273237 9.449862 0.7
0 10.004109 4.595011 8.505479 0.5
0 5.843820 10.029389 6.391529 0.5
0 -4.329409 -9.973256 -6.780257 0.5
0 -2.961393 9.901663 -7.329099 0.5
0 0.493796 7.491819 1.626180 0.5
1 -4.053506 9.506881 9.136194 0.7
0 -3.642169 -4.944211 -0.863050 0.5
1 6.813818 -8.875314 -9.898246 0.7
0 -7.910228 8.781565 9.452530 0.5
1 9.845610 -7.882905 0.815788 0.7
0 -8.251265 -7.014760 9.095758 0.5
1 7.604247 4.138754 10.059001 0.7
1 3.945103 8.292917 -7.354939 0.7
1 -10.096667 -1.617732 10.008122 0.7
1 4.983284 10.107825 8.032496 0.7
0 9.763430 9.506524 -5.454782 0.5
1 3.658887 -0.920314 -3.670118 0.7
0 -5.739719 -6.551703 7.488290 0.5
0 -2.645086 -7.129289 -8.083588 0.5
1 9.280974 5.201222 7.854819 0.7
0 -0.309035 9.156703 9.038430 0.5
0 7.048153 -4.731337 -6.084452 0.5
1 0.993824 5.284981 2.972063 0.7
1 3.058490 9.847548 4.132668 0.7
1 2.987253 -8.965672 7.392475 0.7
1 0.173739 -8.694492 -2.512446 0.7
1 4.567961 3.052057 -7.231998 0.7
1 0.258935 8.267963 8.012190 0.7
1 7.530106 6.814265 6.116179 0.7
0 0.724019 -3.316192 -1.243268 0.5
0 -2.565611 -2.138042 -5.656439 0.5
1 4.674571 7.983289 10.210651 0.7
0 -6.171552 -0.048650 -0.375243 0.5
1 4.854744 3.235556 6.911780 0.7
1 -3.061784 -5.739141 -6.200167 0.7
1 8.080015 -8.135086 -7.810224 0.7
0 -3.918289 -8.544663 3.673621 0.5
0 -2.063429 -9.139845 2.853945 0.5
1 10.173416 8.268901 -6.464686 0.7
0 8.032300 6.125651 10.158271 0.5
0 -0.308899 4.839316 7.374056 0.5
1 4.557081 -5.609770 -1.569475 0.7
0 1.772467 -7.310252 0.241345 0.5
1 4.406589 10.085622 9.131009 0.7
0 1.535309 -0.378005 -6.884123 0.5
1 8.657401 3.318254 10.209132 0.7
1 4.967015 4.549768 7.310838 0.7
1 4.930452 -6.970784 -0.292657 0.7
1 8.884386 -0.251765 -9.901576 0.7
1 7.070152 -5.154843 6.414581 0.7
1 5.396049 -6.508969 -9.179653 0.7
0 6.299555 -7.403478 0.200078 0.5
0 -0.442711 3.323043 0.551906 0.5
0 -0.910155 1.527948 3.501785 0.5
0 6.450547 -6.205786 -8.872650 0.5
1 4.938461 7.697212 -2.015445 0.7
1 -10.143403 5.862676 -7.114889 0.7
1 -8.923200 1.102476 -0.611825 0.7
0 -2.407409 -4.088304 -9.940603 0.5
1 4.214025 -5.670913 -2.880375 0.7
1 -2.948908 9.504193 -6.231866 0.7
1 1.357249 -5.020361 1.788341 0.7
0 -0.103343 -2.242518 8.411519 0.5
0 -0.980083 5.573943 -9.100081 0.5
0 -0.042044 -2.157284 -10.025222 0.5
1 0.548003 -3.211972 -4.584780 0.7
1 1.920655 -6.435358 7.048651 0.7
1 6.747320 5.538416 -9.051898 0.7
1 7.649179 -1.247084 9.703723 0.7
1 8.578022 8.443484 -8.791744 0.7
0 -8.052943 10.031650 8.006600 0.5
1 0.652191 -5.637330 4.724539 0.7
1 10.154454 -3.598131 -7.958413 0.7
0 10.090918 4.387528 -2.066259 0.5
0 -2.743456 3.362645 0.378325 0.5
0 9.927159 -4.765562 5.836587 0.5
1 -7.711826 2.441650 5.790550 0.7
1 1.293390 0.660738 -10.058321 0.7
1 -0.214539 8.106711 9.161157 0.7
1 -6.550128 3.096313 4.884337 0.7
0 -1.599896 5.633694 5.033419 0.5
0 -4.689424 4.438162 -7.615047 0.5
0 5.855528 -6.093206 -4.331506 0.5
0 3.475413 7.499726 -9.456082 0.5
1 7.845928 0.470600 -9.433384 0.7
0 0.336778 9.991175 -9.515176 0.5
0 -5.560812 0.078511 -1.100415 0.5
0 0.128717 -7.290749 -0.029157 0.5
1 4.608310 -9.958074 -10.047219 0.7
1 7.902006 -6.794609 -7.901921 0.7
0 -8.538992 -6.176814 0.889719 0.5
0 -2.794945 -8.782236 -7.592826 0.5
1 -9.959745 -4.114539 9.604481 0.7
1 -7.466459 -0.828353 5.404660 0.7
1 -9.506252 -7.217236 -2.590370 0.7
1 -2.023285 -9.156817 8.403281 0.7
1 2.886487 8.650121 9.511529 0.7
0 -0.384209 -2.066614 -9.213119 0.5
1 10.120788 5.828732 -5.922064 0.7
1 -9.767348 -5.328846 -9.013924 0.7
1 -0.751243 -2.714610 -6.390671 0.7
1 -2.384422 -9.976509 -9.127981 0.7
0 2.031163 -7.497969 -9.610253 0.5
0 -1.065457 -6.441825 5.348712 0.5
1 -2.428859 -4.429014 -8.070543 0.7
0 -2.775256 -9.084483 6.588400 0.5
1 -0.580766 -2.815257 -4.128888 0.7
0 -9.448884 -5.686489 6.492333 0.5
0 9.282353 -7.385235 -6.919977 0.5
1 -8.130834 -4.738785 7.493158 0.7
1 -6.656899 -6.947365 1.639971 0.7
1 9.807055 -3.496956 -9.403318 0.7
1 5.503993 -4.278066 -9.111157 0.7
0 -3.078529 0.768605 -6.953631 0.5
1 -6.165613 -7.008817 -9.609801 0.7
0 -5.208606 -6.992948 9.514743 0.5
1 -7.490288 -2.026975 9.083133 0.7
1 -1.656590 -5.262210 -8.686406 0.7
1 -5.295670 -5.800123 8.216527 0.7
1 -10.080786 3.872154 5.515368 0.7
1 -4.099848 -2.373945 -4.092117 0.7
0 2.832340 -6.347743 6.319966 0.5
0 4.796755 7.883458 -6.917561 0.5
1 1.296798 -2.706337 -9.556741 0.7
0 2.281095 -5.235092 3.794997 0.5
1 7.127513 -5.509074 9.253779 0.7
1 -3.541217 1.911974 8.564791 0.7
0 -2.091245 -6.242150 -6.279997 0.5
1 -8.736669 -4.877905 -7.223734 0.7
0 3.604773 -2.804454 -6.773578 0.5
0 9.258769 -3.717126 -2.131087 0.5
0 5.125480 -6.334794 -6.609300 0.5
0 -8.886855 8.560102 -3.725855 0.5
1 -7.392946 1.748722 -8.853477 0.7
0 3.492532 -9.679290 -3.038004 0.5
1 -1.465500 -6.279817 -9.385003 0.7
1 9.427642 -5.674773 8.525124 0.7
0 -7.453949 7.080069 -2.330775 0.5
1 -6.066246 -0.477081 -10.067422 0.7
0 4.809252 6.159911 8.839083 0.5
1 -4.262486 -6.005702 -6.247229 0.7
1 3.407190 -4.310326 4.305801 0.7
0 -3.077816 -5.747574 -5.082691 0.5
0 -8.866330 3.125106 -4.041905 0.5
0 0.294784 -4.880044 1.991761 0.5
0 -7.423858 -10.093305 -8.573135 0.5
0 -0.839579 1.956147 -10.090354 0.5
0 -4.494314 -7.976597 -9.739420 0.5
1 5.041588 -1.401560 -8.102990 0.7
1 4.191002 -2.229761 -7.535313 0.7
1 -1.476975 -6.510654 -8.094751 0.7
1 -7.150090 -3.882524 -9.301411 0.7
0 4.030127 5.276912 -6.454249 0.5
0 -6.496121 -0.720338 -3.672378 0.5
1 -8.464858 -4.913698 -3.974511 0.7
1 -6.918652 -7.448538 -6.339748 0.7
0 4.790973 7.670747 3.532363 0.5
0 -0.970367 8.802869 3.360975 0.5
0 -5.952754 7.704827 -8.270634 0.5
0 -9.945007 -0.240093 4.849878 0.5
1 1.070828 -0.589380 -9.688476 0.7
0 6.752039 -4.305015 8.592658 0.5
1 -6.406352 -4.731906 -4.375916 0.7
1 0.437271 2.986881 -3.591635 0.7
0 2.559940 -0.862846 -3.755684 0.5
0 5.037121 4.765952 -3.753838 0.5
0 -4.404996 -6.146746 -4.156229 0.5
1 6.345764 -2.323997 2.043782 0.7
0 4.590818 -3.206498 2.588878 0.5
0 -5.541512 3.203616 -4.085993 0.5
0 5.068603 5.773300 -1.884886 0.5
0 10.019363 5.906889 -9.994883 0.5
1 -6.917227 -0.260417 9.490282 0.7
0 -1.988547 -4.215489 7.352868 0.5
0 3.798474 -0.246876 -2.910012 0.5
1 -3.984366 4.035606 -1.514477 0.7
1 -0.616143 -5.650100 7.285286 0.7
1 -0.701789 -2.759401 6.623215 0.7
1 -1.861772 -2.377397 -10.182596 0.7
1 -4.339754 4.859557 -9.215254 0.7
0 7.788784 -4.678748 -9.457867 0.5
0 -2.262076 1.020604 -5.159676 0.5
0 0.708681 -0.772128 5.653118 0.5
0 -1.782165 4.065451 -7.115898 0.5
1 2.130619 3.205056 -5.453864 0.7
1 -9.751407 -0.713467 -8.521451 0.7
1 7.731062 -3.238239 -7.706843 0.7
0 6.362316 -9.913720 -9.736080 0.5
0 -8.543452 5.147189 -4.462219 0.5
1 7.965203 7.401022 -8.504326 0.7
0 -1.561310 -3.720219 -7.863036 0.5
1 6.057465 -7.902539 10.152000 0.7
0 -8.008894 2.408489 1.923362 0.5
1 9.085647 -4.070944 7.319177 0.7
1 -8.039811 -4.693685 -5.173589 0.7
1 -4.861555 -9.730371 -9.727453 0.7
0 3.590166 -10.126458 5.926164 0.5
1 -6.672627 2.073310 -6.764488 0.7
0 -6.797413 4.171308 4.932314 0.5
1 -4.214046 2.784941 -1.374334 0.7
1 -9.563812 0.618996 10.120962 0.7
0 4.856759 -1.601093 -4.920285 0.5
1 9.977027 0.167508 1.003837 0.7
0 1.106445 -1.513553 6.145352 0.5
1 2.599370 -2.464204 8.832322 0.7
1 1.854785 5.408969 4.894485 0.7
0 -9.227557 5.338630 -2.109294 0.5
0 -8.511681 1.420115 1.014525 0.5
1 8.545242 1.525696 -9.568237 0.7
1 2.418342 -7.256038 3.765905 0.7
0 6.947287 -9.946059 -5.997206 0.5
1 6.237445 3.987862 -8.189153 0.7
0 2.756092 2.235093 -5.989610 0.5
1 -6.721114 6.097588 -4.936846 0.7
0 9.895580 0.815334 0.110775 0.5
1 9.217738 5.952926 -7.773064 0.7
0 -4.937728 1.408579 -10.192769 0.5
1 3.719782 9.673223 -7.707398 0.7
1 -3.945701 -3.791306 5.433412 0.7
1 -7.430604 7.384690 4.372494 0.7
0 -5.888310 0.380852 3.738567 0.5
1 2.319502 -1.810939 -5.566259 0.7
1 -3.782155 -3.239007 -6.415269 0.7
0 5.152784 -5.451636 5.264336 0.5
1 8.974794 10.046161 -2.237797 0.7
0 -10.129462 -4.934492 3.898028 0.5
0 1.126772 1.709525 6.492129 0.5
1 -7.685680 3.516327 -5.232068 0.7
0 2.351221 -3.801604 6.532890 0.5
1 8.865094 2.080304 1.002084 0.7
1 -6.510480 -1.162527 6.112648 0.7
1 -2.763681 0.396110 -5.886615 0.7
1 -4.369548 -0.588690 -4.501764 0.7
0 -5.021524 -6.900924 6.998842 0.5
0 -3.787035 0.843125 8.558684 0.5
1 -9.283037 1.678896 3.923406 0.7
0 0.926858 -9.710731 -8.261384 0.5
1 7.317296 5.097724 5.045243 0.7
0 -5.136240 3.495492 9.745251 0.5
0 -7.161857 -4.005400 -6.946847 0.5
0 1.466582 8.022398 -9.836713 0.5
1 -0.947932 -5.881023 9.260786 0.7
1 3.037220 -9.395877 -8.858942 0.7
0 -4.174494 8.567646 -3.712916 0.5
1 3.373713 -0.610830 4.573312 0.7
0 -9.076027 8.443125 9.278387 0.5
1 2.106005 0.825045 8.861194 0.7
0 10.100681 1.307427 9.550236 0.5
0 1.465463 -4.912089 -6.944931 0.5
0 -8.119581 1.528766 1.914845 0.5
1 -8.890630 2.330797 9.225845 0.7
0 -1.463825 3.174787 -7.264780 0.5
1 -4.925032 3.770993 -9.590612 0.7
0 -7.055943 8.274524 2.247753 0.5
0 8.350839 4.412978 0.735207 0.5
0 1.132684 -5.772405 6.520219 0.5
0 8.236809 -9.348399 7.603202 0.5
0 1.605597 4.744805 -0.403144 0.5
0 -9.546326 3.423752 -4.649784 0.5
0 -3.425868 -2.419492 -5.748281 0.5
0 7.982963 7.202635 -1.943507 0.5
0 4.804818 10.081375 -2.845061 0.5
1 -4.115562 9.801026 -5.834227 0.7
1 7.449996 -0.227935 8.094221 0.7
0 -4.578197 -1.355067 1.427551 0.5
1 8.507838 -9.444614 -8.725393 0.7
1 6.706498 -0.486656 9.980025 0.7
1 7.755255 4.983589 -0.751834 0.7
1 -3.358430 0.805619 -3.133040 0.7
0 -8.959516 5.423138 7.831667 0.5
1 -2.989495 -9.659142 -2.480094 0.7
1 -2.506836 -8.356153 7.362036 0.7
0 -5.123377 0.891119 8.107400 0.5
1 10.158630 2.025067 1.062707 0.7
0 -6.830574 -8.512570 -4.279536 0.5
0 -8.714395 -8.134814 4.397627 0.5
0 4.773524 3.246305 5.683603 0.5
0 5.412559 3.174593 -3.072414 0.5
1 -5.222183 8.310515 -2.220748 0.7
1 -3.990028 1.217723 9.580147 0.7
0 -4.325681 10.138527 -8.958433 0.5
0 -7.669133 -0.929359 9.201768 0.5
1 2.882402 -6.613898 -4.897714 0.7
0 3.488394 1.462203 4.526159 0.5
0 -5.812937 3.931193 -1.968095 0.5
1 0.399410 -2.102306 -3.987133 0.7
1 -9.026348 4.347827 5.024917 0.7
1 -6.125172 9.856590 3.488878 0.7
1 -7.851650 -7.941495 -3.829721 0.7
0 7.497293 4.293094 -9.288854 0.5
0 1.372393 2.974966 -6.688131 0.5
0 2.488129 -5.246552 -6.498250 0.5
1 -5.652575 -2.115633 6.380601 0.7
0 -0.554051 9.459260 -2.093045 0.5
1 -7.778151 -0.046624 6.352113 0.7
0 -6.027295 0.147715 4.650994 0.5
0 -0.960816 -1.945691 -7.203618 0.5
0 6.376435 -6.126044 9.687330 0.5
0 -2.150674 0.738474 1.437541 0.5
1 -2.354466 0.298734 -9.041942 0.7
1 0.420553 -6.123876 -1.983275 0.7
1 8.083075 -8.191724 0.279057 0.7
1 6.287218 2.901061 9.048302 0.7
0 6.203123 8.091885 -5.921995 0.5
0 -1.752026 -3.989777 -5.661616 0.5
1 -1.119723 3.114134 4.883076 0.7
1 7.274215 5.794382 -7.121630 0.7
1 4.927181 7.072635 9.413251 0.7
1 10.066973 3.695675 2.995924 0.7
0 7.267605 -1.643214 6.610667 0.5
1 -4.470984 2.484638 -8.067630 0.7
0 -1.916832 -1.622419 -5.221446 0.5
1 -9.264885 -3.013516 -3.361692 0.7
0 4.262212 4.321786 -9.241147 0.5
1 -8.573636 6.126667 -3.878758 0.7
0 4.098006 8.044025 -1.441187 0.5
0 -0.831474 -9.985381 9.433191 0.5
1 2.708193 7.524771 -8.045480 0.7
0 -3.248155 7.117307 6.619029 0.5
1 -1.708216 2.173940 7.517368 0.7
1 3.033756 -0.263421 -4.590229 0.7
0 3.831899 -7.128651 9.410122 0.5
0 -9.146032 3.072360 -8.860994 0.5
1 2.730310 -0.200540 9.198930 0.7
1 -7.663412 2.319091 -0.314280 0.7
1 3.790067 -4.805185 -2.075587 0.7
1 4.723178 6.298157 6.460573 0.7
1 0.739158 5.125566 -9.620640 0.7
0 -6.113594 -8.398148 -4.854147 0.5
1 5.958495 7.014428 -5.742592 0.7
1 10.036121 -0.555025 -4.832455 0.7
0 -2.963977 -1.050580 7.951637 0.5
0 -4.814729 9.535282 8.382564 0.5
1 -6.654774 6.278299 -6.474591 0.7
0 -3.591810 -8.325744 7.556035 0.5
0 5.276304 -5.139343 6.802185 0.5
0 9.706929 8.599365 -5.507953 0.5
0 -4.914602 -9.721236 -5.232837 0.5
0 5.315951 7.508138 5.027670 0.5
1 0.985412 9.127570 -9.421130 0.7
1 -0.062885 -8.183213 -6.702987 0.7
0 -4.846329 1.815866 -7.184189 0.5
1 1.574543 4.809609 -1.491996 0.7
1 9.680365 7.512927 4.937398 0.7
0 -2.365066 -3.912002 1.832215 0.5
0 8.547660 9.458649 -9.525087 0.5
0 9.149789 -8.409138 0.141741 0.5
1 0.792100 5.756421 -8.066921 0.7
0 6.039253 9.805038 8.010460 0.5
1 3.526265 8.413850 -4.976241 0.7
0 -3.656905 8.912864 6.964349 0.5
0 4.169708 2.620841 -5.611056 0.5
0 -4.629453 5.411510 -0.394720 0.5
0 2.561825 7.713029 0.501243 0.5
1 -7.030976 -0.533866 -8.022030 0.7
1 -1.152870 6.613342 -3.220667 0.7
1 -8.813256 -5.676073 -1.897914 0.7
0 6.173861 -2.165363 0.716955 0.5
0 -2.417146 -4.461127 9.631888 0.5
0 9.886104 -2.452610 -9.738619 0.5
0 2.416957 8.937429 8.523210 0.5
0 -0.906723 8.368820 5.205757 0.5
0 -4.670387 7.947008 -6.304706 0.5
1 4.970618 10.129964 3.540098 0.7
0 -3.022422 -2.924560 8.760527 0.5
0 3.782806 7.638464 -2.251243 0.5
1 -5.439610 8.867299 -7.851139 0.7
1 3.132134 7.478853 -6.795527 0.7
0 8.572336 2.337627 8.471976 0.5
0 0.884779 -6.225562 -4.563002 0.5
0 8.410622 -2.988590 9.917701 0.5
1 -5.092145 -9.866137 6.147560 0.7
1 7.384723 1.432334 -10.173643 0.7
0 -8.864270 2.185537 -10.116458 0.5
0 5.630002 -7.659755 7.300637 0.5
1 -5.604455 7.112291 -2.331093 0.7
0 1.420648 -7.133553 -8.792889 0.5
1 -0.290295 -9.292075 -6.152002 0.7
1 -3.810384 9.776659 -8.038381 0.7
0 5.237517 -2.246131 -7.372299 0.5
0 4.866522 8.190490 9.150746 0.5
0 3.162742 0.791725 -0.378123 0.5
1 -4.563335 -3.021576 -7.357377 0.7
0 6.119622 5.601286 -4.709053 0.5
0 -7.607782 4.336067 7.580275 0.5
1 -7.040160 -8.791455 -3.305225 0.7
0 -9.173074 5.176308 5.756629 0.5
0 -0.616535 8.337410 -3.083259 0.5
1 -8.569407 4.473390 -5.354898 0.7
1 -7.995403 -2.433880 -6.819119 0.7
0 9.767866 -2.049740 5.882793 0.5
0 4.065698 -6.199534 7.409909 0.5
1 6.676196 9.062110 8.536389 0.7
1 -5.936706 5.628832 -3.925729 0.7
1 -2.029929 -2.052190 -7.618797 0.7
1 -2.297725 8.257656 -7.994376 0.7
1 7.874935 7.763159 9.633279 0.7
0 2.026974 6.546165 -9.217732 0.5
1 10.176923 1.293326 -8.872416 0.7
0 5.572620 9.678588 7.197842 0.5
1 -9.623099 -9.849617 -8.527370 0.7
0 -6.483493 -7.679585 -4.366439 0.5
1 -0.349768 1.324301 7.554633 0.7
0 3.651069 7.455563 4.890794 0.5
1 7.321015 6.823024 3.409944 0.7
1 5.011029 -4.762491 -2.634385 0.7
1 -2.342743 6.791125 -3.398158 0.7
0 4.243853 9.555836 -2.290275 0.5
1 1.957965 -6.675300 -3.106640 0.7
0 3.375017 -7.134120 -9.211840 0.5
0 2.834451 1.313495 -5.838026 0.5
0 5.114908 -5.110882 4.367815 0.5
0 9.013073 -6.465612 2.187786 0.5
1 4.249616 -8.969763 1.131803 0.7
0 -8.707374 4.576760 6.397121 0.5
1 5.044701 7.421085 6.210594 0.7
1 -6.183102 5.219110 8.644388 0.7
1 -2.715057 -5.408758 5.586538 0.7
1 1.858117 7.864632 4.229728 0.7
0 4.993333 6.941889 -9.862995 0.5
1 -0.952236 -9.036894 -1.862485 0.7
0 5.250860 8.450370 -3.556938 0.5
1 -4.572126 6.432707 9.327037 0.7
0 -1.863654 6.276455 0.988885 0.5
1 7.292387 9.087908 1.728955 0.7
0 1.726853 -7.274300 -5.417084 0.5
1 3.117753 9.788480 8.893946 0.7
0 2.788211 -0.323608 5.939166 0.5
0 -9.802380 5.687098 0.831373 0.5
1 -9.829567 -10.200047 2.211036 0.7
0 6.018640 -7.588327 4.576211 0.5
1 8.763156 -3.717143 -5.927874 0.7
1 -8.980467 -9.372113 -2.395857 0.7
1 8.812229 1.983129 -7.362738 0.7
0 -7.763952 7.308177 -3.206925 0.5
1 2.951067 -4.757377 -9.239084 0.7
0 1.195674 -7.831693 -8.219392 0.5
0 -0.887052 -5.622647 -7.969412 0.5
0 -10.143886 -1.141621 -6.450529 0.5
1 9.035322 -7.266694 -8.021217 0.7
1 10.055507 -7.933903 -7.444249 0.7
1 1.458692 -4.486776 6.364793 0.7
1 0.148758 -9.078658 -1.310609 0.7
1 -1.207562 -7.784339 -8.157939 0.7
0 -2.067225 -7.097767 2.374513 0.5
0 9.676868 5.203517 -9.433161 0.5
1 9.148026 -5.980641 -2.165126 0.7
1 4.186670 5.514852 5.687932 0.7
0 3.340083 -8.663263 -9.620716 0.5
0 -7.977163 -6.237781 -1.429514 0.5
1 6.242183 -4.071637 -4.596254 0.7
1 2.677095 -4.003524 -5.596555 0.7
1 6.997958 -1.359400 -5.346041 0.7
0 -0.273471 1.173630 -9.957007 0.5
1 -4.692668 -8.566509 0.135474 0.7
1 -6.165594 -7.180913 -8.304341 0.7
1 2.899660 5.629539 -8.000920 0.7
0 -9.247884 -8.028658 -7.328449 0.5
1 -6.995413 2.847337 6.815967 0.7