400
step:0 columns:species,position dt:1 cell:21.5665546406877,21.5665546406877,21.5665546406877 
1 8.180961 9.635396 0.000000
0 -9.913847 8.351761 0.000000
1 -8.129512 9.990026 0.000000
1 -7.076902 10.778924 0.000000
0 -6.625189 -9.744515 0.000000
0 -6.012857 -8.351335 0.000000
0 -2.877320 -9.752830 0.000000
0 -4.130905 10.067763 0.000000
1 -3.027351 9.857064 0.000000
1 -0.975824 8.168062 0.000000
1 -0.531524 -10.728383 0.000000
0 4.969344 -9.231593 0.000000
0 4.552842 9.053456 0.000000
1 4.284345 -8.351145 0.000000
0 4.112271 -10.721766 0.000000
0 8.388076 -9.466812 0.000000
1 5.592481 -8.321847 0.000000
1 9.150196 -8.647162 0.000000
0 8.252090 -10.447800 0.000000
0 9.928226 10.507794 0.000000
1 10.610787 -10.178957 0.000000
0 10.517615 9.739103 0.000000
1 -8.531517 -10.351863 0.000000
0 -7.580633 -9.803707 0.000000
0 -4.420675 -7.433313 0.000000
1 -3.745123 -9.113435 0.000000
0 -4.904891 10.660032 0.000000
0 -4.971723 9.586359 0.000000
0 0.211544 -9.843791 0.000000
1 -0.745252 9.509715 0.000000
1 -1.942465 9.112792 0.000000
1 2.643997 -9.639536 0.000000
1 3.939326 -9.652974 0.000000
0 3.152753 -10.657989 0.000000
0 6.681094 -8.835560 0.000000
1 6.754646 -7.760712 0.000000
0 5.942186 -9.429854 0.000000
1 7.832467 -8.490694 0.000000
0 8.676626 -7.646417 0.000000
1 10.297490 -8.053931 0.000000
0 -9.257314 -9.509264 0.000000
0 -9.143377 -8.553054 0.000000
0 -6.741944 -7.764752 0.000000
1 -5.517269 -7.321969 0.000000
1 -3.760246 -10.471939 0.000000
0 -2.663987 -10.667851 0.000000
1 -1.722405 10.367855 0.000000
0 -2.972206 8.712668 0.000000
1 -1.595427 -4.751913 0.000000
0 -0.497682 -7.832212 0.000000
1 1.331527 -9.572365 0.000000
0 1.669084 -7.463030 0.000000
1 0.034991 -8.780054 0.000000
0 4.660302 -6.048245 0.000000
0 5.820369 -7.233230 0.000000
0 7.750291 -7.357752 0.000000
1 6.968895 -6.496894 0.000000
1 10.746152 -6.782490 0.000000
0 9.547548 -7.228519 0.000000
1 -10.012850 -7.867668 0.000000
1 -7.169000 -8.761533 0.000000
1 -6.611397 -6.707516 0.000000
0 -5.693536 -6.147631 0.000000
0 -5.839981 -10.294712 0.000000
0 -5.321329 -5.270399 0.000000
1 -2.597334 -6.776327 0.000000
1 -1.783931 -9.891930 0.000000
0 -2.313870 -7.931859 0.000000
0 -2.539944 -8.860755 0.000000
1 -1.365485 -8.634874 0.000000
1 0.774902 -10.757774 0.000000
0 -0.730606 -9.598219 0.000000
1 4.712782 -7.169998 0.000000
1 5.725485 -6.171658 0.000000
1 5.967837 -3.844303 0.000000
1 7.665200 -5.444308 0.000000
1 8.423194 -6.519126 0.000000
1 9.628831 -6.119459 0.000000
0 10.133838 -9.174250 0.000000
0 -9.830928 -10.273193 0.000000
1 10.577202 -5.318935 0.000000
1 -7.924844 -5.224617 0.000000
1 -7.160773 -4.245444 0.000000
1 -4.844035 -9.789072 0.000000
1 -4.870771 -8.472614 0.000000
0 -5.467835 -3.352692 0.000000
1 -3.408705 -7.904704 0.000000
1 -1.478083 -6.053085 0.000000
0 -3.340111 -3.156756 0.000000
1 -1.429289 -7.311206 0.000000
1 -0.156218 -4.164466 0.000000
1 -0.296833 -6.655088 0.000000
1 5.105048 -4.990898 0.000000
1 3.181365 -7.616694 0.000000
1 6.402633 -5.121822 0.000000
1 6.195138 -2.363597 0.000000
0 8.765052 -5.429572 0.000000
0 -8.889961 -7.541832 0.000000
0 -8.334150 -9.217186 0.000000
0 -7.549462 -6.213663 0.000000
0 10.548842 -4.211398 0.000000
1 -8.661159 -6.333362 0.000000
1 -8.557838 -4.105942 0.000000
0 -5.807242 -9.261879 0.000000
0 -9.007444 -5.163302 0.000000
1 -4.238351 -5.036048 0.000000
0 -3.674726 -6.811750 0.000000
1 -4.423149 -2.944158 0.000000
1 -2.312392 -3.635252 0.000000
1 -0.404529 -5.393783 0.000000
1 1.001461 -6.369602 0.000000
1 0.575867 -7.570722 0.000000
0 3.265357 -8.736448 0.000000
1 7.277695 -4.216727 0.000000
0 6.905835 -3.198784 0.000000
0 6.886127 -1.381341 0.000000
0 -9.627173 -6.878656 0.000000
1 9.904372 -3.297981 0.000000
0 -8.206971 -8.287954 0.000000
1 -7.769522 -7.309044 0.000000
0 9.416015 -0.884952 0.000000
1 -9.869467 -5.834242 0.000000
1 -9.921333 -4.510655 0.000000
0 -7.562862 -1.029464 0.000000
1 -6.593529 -5.430512 0.000000
1 -6.588670 -3.082953 0.000000
1 -4.614860 -6.271239 0.000000
0 -3.443486 -5.852753 0.000000
0 -2.619936 -2.555492 0.000000
1 -1.528063 -2.577635 0.000000
0 1.112227 -8.500984 0.000000
1 3.630619 -6.447451 0.000000
0 -1.180190 -3.687792 0.000000
1 3.774996 -3.365496 0.000000
1 5.033563 -2.870211 0.000000
0 5.931737 -1.295280 0.000000
0 8.346553 -4.521609 0.000000
1 7.521908 -2.275406 0.000000
0 -9.484141 -3.498271 0.000000
1 9.500303 -4.612366 0.000000
0 -9.819001 -2.588758 0.000000
0 -10.441618 -3.448722 0.000000
0 10.749089 -2.579241 0.000000
1 -10.353560 -1.590406 0.000000
1 -5.899999 -4.339719 0.000000
1 -2.994543 -4.695821 0.000000
1 -3.526470 -1.926453 0.000000
0 -4.810000 -4.077513 0.000000
0 -2.479312 -5.643084 0.000000
1 2.330920 -6.594500 0.000000
0 4.835713 -3.923181 0.000000
0 4.057279 -4.453781 0.000000
0 3.995003 -5.377752 0.000000
1 2.187942 -8.437325 0.000000
1 3.990723 -2.109185 0.000000
0 6.384899 -0.438535 0.000000
0 7.936386 -3.342148 0.000000
0 6.851711 0.436702 0.000000
0 8.844888 -3.705081 0.000000
1 9.856596 -1.910964 0.000000
1 7.491610 -0.465171 0.000000
1 -8.662181 -2.763355 0.000000
0 -8.201389 -1.750101 0.000000
0 -7.725327 -3.330427 0.000000
0 -7.516889 -2.402207 0.000000
0 -3.839964 -3.963827 0.000000
0 -5.699195 0.258929 0.000000
0 -9.193148 -1.790475 0.000000
0 0.739024 -3.063566 0.000000
0 1.810453 -5.581584 0.000000
0 3.120457 -4.315417 0.000000
0 1.709258 -3.310820 0.000000
0 2.648191 -3.482392 0.000000
1 3.142208 -1.115183 0.000000
0 0.353162 -2.013120 0.000000
1 1.443440 -2.231122 0.000000
0 2.085913 -1.348111 0.000000
1 8.423282 -1.365492 0.000000
0 5.409850 -0.511094 0.000000
1 8.787363 -2.597840 0.000000
1 7.831945 0.932474 0.000000
1 8.674726 -0.063863 0.000000
1 -9.111078 0.092343 0.000000
1 -10.363046 -0.164052 0.000000
1 -6.680312 -1.693854 0.000000
1 -5.573376 -2.277987 0.000000
1 -5.447739 -0.991835 0.000000
0 -4.611715 -1.789494 0.000000
1 0.820863 -5.084905 0.000000
0 0.958365 -3.981655 0.000000
1 2.894756 -5.388722 0.000000
1 -2.251160 -1.518260 0.000000
1 2.720574 -2.381992 0.000000
1 1.987132 -4.432975 0.000000
1 3.561225 0.113938 0.000000
0 5.109561 -1.764005 0.000000
0 2.679104 0.794185 0.000000
1 7.408600 2.153389 0.000000
0 6.613489 1.377511 0.000000
0 5.662729 1.632883 0.000000
1 9.151899 1.116221 0.000000
0 10.370201 -0.901662 0.000000
1 9.950115 0.136208 0.000000
0 -9.517209 -0.904252 0.000000
0 -8.541320 -0.864583 0.000000
1 -7.821932 0.064841 0.000000
1 -6.598872 -0.407792 0.000000
0 -4.191174 -0.930945 0.000000
1 -0.319718 -2.919503 0.000000
0 -3.138994 -0.841290 0.000000
1 -2.579051 0.621552 0.000000
0 -0.061378 -1.125159 0.000000
0 -0.670625 -1.873704 0.000000
1 2.176073 -0.207430 0.000000
1 1.022927 -0.990701 0.000000
0 4.685662 0.164494 0.000000
1 4.400820 -0.904426 0.000000
1 5.757270 0.541596 0.000000
1 7.774883 4.286614 0.000000
0 8.454511 1.948652 0.000000
0 -9.857524 0.898992 0.000000
0 10.282874 2.618117 0.000000
0 10.747533 0.893562 0.000000
0 -9.307327 1.678106 0.000000
1 -10.377659 1.952788 0.000000
0 -6.805986 0.674393 0.000000
1 -8.286172 2.052107 0.000000
1 -5.949921 1.351463 0.000000
1 -3.723486 0.082448 0.000000
1 -1.307975 0.363480 0.000000
1 -1.148200 -0.886015 0.000000
0 0.555258 0.924348 0.000000
0 0.664756 1.896937 0.000000
0 2.704490 1.804902 0.000000
0 3.519520 1.228559 0.000000
0 5.401749 3.244474 0.000000
1 4.619433 1.252499 0.000000
0 7.253733 3.256024 0.000000
0 9.460085 3.156732 0.000000
1 8.366955 3.084846 0.000000
0 9.565866 5.260020 0.000000
0 10.125506 1.621355 0.000000
0 -10.412889 3.110088 0.000000
1 -8.576286 3.272121 0.000000
1 -7.606711 4.084729 0.000000
0 -5.317078 3.376192 0.000000
0 -7.638182 1.154394 0.000000
0 -3.574413 1.176203 0.000000
0 -2.213784 -0.408630 0.000000
1 -1.699661 1.585313 0.000000
1 -0.444995 1.350777 0.000000
1 -0.059895 -0.013809 0.000000
0 -1.159938 2.533220 0.000000
1 1.640284 1.080905 0.000000
0 4.999064 2.347621 0.000000
1 6.234252 2.554123 0.000000
0 7.042392 6.690179 0.000000
1 7.570680 5.650033 0.000000
0 8.562442 5.158802 0.000000
0 10.277058 3.617953 0.000000
0 -10.483576 4.131409 0.000000
0 -9.492380 2.652818 0.000000
0 -8.590942 1.008204 0.000000
1 -7.315676 2.827321 0.000000
1 -5.461826 5.436841 0.000000
0 -5.605594 4.381512 0.000000
0 -6.203849 2.521876 0.000000
1 -4.153584 3.156914 0.000000
0 -4.802279 -0.111434 0.000000
1 -4.699479 1.013607 0.000000
0 -1.670604 3.421689 0.000000
0 -2.790818 1.725783 0.000000
0 -3.232798 2.540577 0.000000
0 1.082544 0.105296 0.000000
1 1.697053 2.333875 0.000000
1 6.342326 3.854055 0.000000
0 6.802035 4.869946 0.000000
1 6.225812 5.885416 0.000000
0 10.228458 4.588034 0.000000
0 10.130780 6.048905 0.000000
1 -10.542309 5.383565 0.000000
0 9.361286 2.228100 0.000000
1 -8.117801 5.222886 0.000000
1 -6.387544 3.659662 0.000000
1 -3.553299 6.244192 0.000000
0 -3.700425 4.174416 0.000000
1 -2.813816 3.547976 0.000000
0 0.253999 4.229172 0.000000
0 -6.950704 1.797254 0.000000
1 -5.106429 2.290244 0.000000
0 1.711402 5.032717 0.000000
1 2.539022 4.281115 0.000000
0 -0.165379 2.411349 0.000000
0 1.784064 3.458966 0.000000
1 0.706461 3.149047 0.000000
1 3.827748 2.282322 0.000000
0 5.833551 4.812467 0.000000
0 5.577909 7.785584 0.000000
1 4.973016 5.467988 0.000000
1 9.138546 4.201630 0.000000
1 8.998899 6.214077 0.000000
0 -8.795471 4.356165 0.000000
1 -6.692737 4.997753 0.000000
0 -4.646134 6.146284 0.000000
0 -6.291952 6.113290 0.000000
1 -5.488313 6.847795 0.000000
1 -4.228620 5.130743 0.000000
0 -2.210017 2.583427 0.000000
1 -0.534127 3.454472 0.000000
1 -0.454333 6.015950 0.000000
0 -4.693590 4.135910 0.000000
1 0.635364 5.313725 0.000000
1 2.793238 2.986944 0.000000
0 2.999839 6.693574 0.000000
1 4.872156 4.196755 0.000000
1 3.165741 7.780852 0.000000
0 4.441301 3.176020 0.000000
1 5.065295 6.743923 0.000000
1 8.683793 7.535342 0.000000
0 9.562568 8.239649 0.000000
0 -9.700444 4.655907 0.000000
1 -8.501246 7.877878 0.000000
0 -9.607092 3.675657 0.000000
1 -7.346075 6.172517 0.000000
0 -6.646839 7.065139 0.000000
1 -4.884137 8.026600 0.000000
1 -2.944205 5.016033 0.000000
0 -2.086944 4.349963 0.000000
0 -4.034946 2.002217 0.000000
1 -1.563282 5.358400 0.000000
0 1.213530 4.226105 0.000000
0 1.528637 6.003261 0.000000
1 2.625052 5.639562 0.000000
1 1.951839 7.024086 0.000000
0 3.640328 3.688355 0.000000
0 3.975427 7.060433 0.000000
1 3.724220 4.780794 0.000000
1 3.862630 6.013553 0.000000
1 6.646628 8.021045 0.000000
0 7.587365 7.505425 0.000000
0 -10.623440 6.610516 0.000000
0 -9.751657 6.185632 0.000000
1 -8.608984 6.481929 0.000000
0 -7.653288 7.205665 0.000000
1 -7.070924 8.155110 0.000000
0 -10.127240 9.393189 0.000000
1 -1.596026 6.724654 0.000000
0 -2.723264 6.934249 0.000000
0 1.813046 9.023180 0.000000
1 0.634452 6.739736 0.000000
0 -1.159351 4.314755 0.000000
0 -0.433284 4.908565 0.000000
0 3.686133 8.733310 0.000000
0 2.427706 9.817252 0.000000
1 5.658323 8.925465 0.000000
0 2.163707 8.135366 0.000000
0 6.149063 7.007468 0.000000
1 6.944022 9.269477 0.000000
0 8.676929 8.640655 0.000000
0 -10.651521 7.614595 0.000000
0 -9.183591 5.439186 0.000000
1 -9.621955 7.279238 0.000000
1 -9.049766 9.029422 0.000000
0 -7.940787 8.861793 0.000000
1 -5.917482 10.185047 0.000000
0 -6.012956 7.807845 0.000000
1 -4.044262 8.964716 0.000000
0 -0.573882 7.096514 0.000000
0 0.071721 7.750358 0.000000
0 -2.455620 6.005883 0.000000
1 1.094978 8.033933 0.000000
0 0.024561 8.713143 0.000000
0 2.769089 8.911386 0.000000
1 3.545950 9.837486 0.000000
1 5.206880 -10.300426 0.000000
1 4.523431 7.981889 0.000000
0 8.007575 6.647785 0.000000
0 7.738737 8.470494 0.000000
0 8.949998 10.448337 0.000000
1 9.921782 7.164317 0.000000
1 10.571262 8.644758 0.000000
1 -10.284898 -9.097173 0.000000
0 -10.444310 10.439450 0.000000
1 -9.383356 10.262847 0.000000
1 -6.978658 9.454562 0.000000
1 -5.836935 8.885609 0.000000
0 -4.365332 7.046502 0.000000
1 -3.527232 7.733331 0.000000
1 -2.208358 7.876446 0.000000
0 1.409351 9.905243 0.000000
0 0.869195 9.115860 0.000000
1 2.039200 -10.731860 0.000000
0 0.276958 9.852443 0.000000
1 4.844848 10.052829 0.000000
0 6.363814 -10.298298 0.000000
1 7.311980 -9.724255 0.000000
1 6.072378 10.201181 0.000000
1 7.299230 10.554952 0.000000
1 9.336791 -10.032212 0.000000
1 9.470831 9.420442 0.000000
