1200
step:1 columns:id,pos,velocity dt:1 cell:10.00059986114502,10.00059986114502,10.00059986114502 
A 0.858753 -4.594743 3.468113 0.000000 0.000000 0.000000
A 0.310684 -4.919744 -4.597178 0.000000 0.000000 0.000000
A 0.143273 3.286445 -0.771037 0.000000 0.000000 0.000000
A 3.193223 0.780315 -3.012341 0.000000 0.000000 0.000000
A -2.658112 3.073148 -1.372067 0.000000 0.000000 0.000000
A -3.763942 3.583122 -4.949188 0.000000 0.000000 0.000000
A -3.917550 3.700343 -3.923491 0.000000 0.000000 0.000000
A -0.274082 0.921673 2.068907 0.000000 0.000000 0.000000
A -2.124952 0.626450 1.528826 0.000000 0.000000 0.000000
A -2.311295 -0.868938 -1.240823 0.000000 0.000000 0.000000
A 3.862515 0.534778 -1.005586 0.000000 0.000000 0.000000
A -0.160288 -0.071641 -1.682346 0.000000 0.000000 0.000000
A 1.270067 -3.561999 0.438045 0.000000 0.000000 0.000000
A 0.187254 0.043779 -3.712769 0.000000 0.000000 0.000000
A -3.512174 3.068411 1.938876 0.000000 0.000000 0.000000
A 0.503889 3.839452 0.946738 0.000000 0.000000 0.000000
A -1.753531 -3.471537 3.433683 0.000000 0.000000 0.000000
A -3.876861 -1.356395 1.425168 0.000000 0.000000 0.000000
A -0.045206 -3.742374 -4.711291 0.000000 0.000000 0.000000
A -2.124696 -1.775992 2.662615 0.000000 0.000000 0.000000
A -4.706769 -2.002107 2.613543 0.000000 0.000000 0.000000
A 1.861879 -0.515235 -2.807642 0.000000 0.000000 0.000000
A -3.273406 -3.521154 -2.071006 0.000000 0.000000 0.000000
A 1.098356 -1.470669 4.657128 0.000000 0.000000 0.000000
A 3.081103 2.604578 2.338568 0.000000 0.000000 0.000000
A -4.721736 3.361290 2.798818 0.000000 0.000000 0.000000
A 4.880048 2.473763 2.014154 0.000000 0.000000 0.000000
A 1.404454 1.917031 -4.214706 0.000000 0.000000 0.000000
A -2.034728 3.580816 -0.549282 0.000000 0.000000 0.000000
A -4.236697 3.298457 -0.603931 0.000000 0.000000 0.000000
A -4.123403 4.834661 2.834431 0.000000 0.000000 0.000000
A 2.824637 4.018331 3.841127 0.000000 0.000000 0.000000
A 1.005493 -0.800626 -3.910988 0.000000 0.000000 0.000000
A 0.882970 1.903231 -2.081253 0.000000 0.000000 0.000000
A 4.812550 -2.800827 -3.165568 0.000000 0.000000 0.000000
A -4.780910 -3.828321 -2.916143 0.000000 0.000000 0.000000
A -0.662759 -3.249274 -1.936866 0.000000 0.000000 0.000000
A 4.096653 -3.694555 2.011113 0.000000 0.000000 0.000000
A 3.601008 -0.360569 -3.130476 0.000000 0.000000 0.000000
A 0.417450 3.040013 0.307214 0.000000 0.000000 0.000000
A -4.136783 -1.521990 3.582731 0.000000 0.000000 0.000000
A 2.432972 -4.947232 3.551180 0.000000 0.000000 0.000000
A -4.220464 1.387280 4.330723 0.000000 0.000000 0.000000
A 0.212867 4.782554 -2.011471 0.000000 0.000000 0.000000
A -0.773803 -4.809176 2.639013 0.000000 0.000000 0.000000
A 0.444297 -1.499731 -1.686889 0.000000 0.000000 0.000000
A 2.074520 3.966397 -3.761823 0.000000 0.000000 0.000000
A -0.012243 0.994951 0.178405 0.000000 0.000000 0.000000
A 4.475179 4.782419 4.581354 0.000000 0.000000 0.000000
A 0.115534 1.080845 -3.859808 0.000000 0.000000 0.000000
A -2.020657 -1.401936 4.864515 0.000000 0.000000 0.000000
A -3.945927 -0.379442 3.258619 0.000000 0.000000 0.000000
A 3.291697 -0.600773 2.138638 0.000000 0.000000 0.000000
A 1.048765 -4.748063 -1.317012 0.000000 0.000000 0.000000
A 2.743513 -4.276408 1.760593 0.000000 0.000000 0.000000
A 2.915251 -1.453883 2.762149 0.000000 0.000000 0.000000
A 2.005476 1.347457 0.511702 0.000000 0.000000 0.000000
A -4.179717 -4.086607 4.147000 0.000000 0.000000 0.000000
A -2.646228 -2.101009 -0.095413 0.000000 0.000000 0.000000
A -2.962987 -0.513391 -1.874006 0.000000 0.000000 0.000000
A 0.649688 3.961309 -0.198314 0.000000 0.000000 0.000000
A -3.509800 -3.215738 2.320321 0.000000 0.000000 0.000000
A -1.492014 -0.538730 4.576797 0.000000 0.000000 0.000000
A -1.153623 -1.517613 4.260557 0.000000 0.000000 0.000000
A -3.043766 3.463917 3.963209 0.000000 0.000000 0.000000
A -3.051674 3.809325 -0.749421 0.000000 0.000000 0.000000
A -2.951959 -3.872444 -4.722339 0.000000 0.000000 0.000000
A -2.678901 0.695981 4.478157 0.000000 0.000000 0.000000
A 4.416628 -4.707814 2.284979 0.000000 0.000000 0.000000
A -4.961583 -0.253612 -1.155481 0.000000 0.000000 0.000000
A -1.068545 0.419743 -1.947684 0.000000 0.000000 0.000000
A -2.361788 -2.686961 3.810837 0.000000 0.000000 0.000000
A -0.569291 2.721545 -0.080788 0.000000 0.000000 0.000000
A -0.575504 -4.425503 0.423206 0.000000 0.000000 0.000000
A -3.540236 3.016474 3.074530 0.000000 0.000000 0.000000
A 1.645013 3.881133 2.524668 0.000000 0.000000 0.000000
A 0.695066 -3.507400 -3.413669 0.000000 0.000000 0.000000
A -1.352364 1.893328 3.397509 0.000000 0.000000 0.000000
A 1.399699 -1.201992 1.750469 0.000000 0.000000 0.000000
A -4.244692 -3.264472 0.683361 0.000000 0.000000 0.000000
A -2.440311 -2.975353 -1.606764 0.000000 0.000000 0.000000
A 1.027608 -2.619294 -2.757177 0.000000 0.000000 0.000000
A 2.612794 -0.150172 -3.391907 0.000000 0.000000 0.000000
A 3.630782 1.083938 -1.934193 0.000000 0.000000 0.000000
A -4.241013 0.672994 -2.046235 0.000000 0.000000 0.000000
A 1.388035 -3.368978 4.224497 0.000000 0.000000 0.000000
A 4.256135 -1.827916 2.913879 0.000000 0.000000 0.000000
A -1.446383 -0.332994 0.389801 0.000000 0.000000 0.000000
A 2.264791 0.775898 -1.057846 0.000000 0.000000 0.000000
A -1.648108 2.878786 -1.358639 0.000000 0.000000 0.000000
A -0.477238 3.758519 0.238649 0.000000 0.000000 0.000000
A 3.274739 -2.242286 3.425742 0.000000 0.000000 0.000000
A 2.385626 -2.582078 2.802599 0.000000 0.000000 0.000000
A -0.520006 -0.318771 1.832731 0.000000 0.000000 0.000000
A -3.674087 -0.343798 -3.647218 0.000000 0.000000 0.000000
A 4.413520 -1.765360 1.805788 0.000000 0.000000 0.000000
A -3.957730 -4.265848 -4.785364 0.000000 0.000000 0.000000
A 1.507307 1.310156 -0.409824 0.000000 0.000000 0.000000
A 4.123960 0.458167 -2.840967 0.000000 0.000000 0.000000
A -3.603714 3.388084 -2.698279 0.000000 0.000000 0.000000
A -3.749598 -2.226608 2.066329 0.000000 0.000000 0.000000
A -2.030875 4.087670 3.514776 0.000000 0.000000 0.000000
A 4.819974 -0.157435 -3.292101 0.000000 0.000000 0.000000
A -0.350037 -1.058658 -2.236335 0.000000 0.000000 0.000000
A 4.583363 -4.895073 -3.071632 0.000000 0.000000 0.000000
A 1.195953 2.882272 2.693619 0.000000 0.000000 0.000000
A 0.465726 -0.826839 4.108675 0.000000 0.000000 0.000000
A 2.751889 3.834217 -2.981561 0.000000 0.000000 0.000000
A 4.842880 -1.350592 -4.510467 0.000000 0.000000 0.000000
A 2.137525 0.768633 -3.156874 0.000000 0.000000 0.000000
A -2.704720 -4.267413 2.465821 0.000000 0.000000 0.000000
A 0.523169 -2.728631 -1.767390 0.000000 0.000000 0.000000
A -3.571686 -0.340910 4.682702 0.000000 0.000000 0.000000
A -2.864486 3.549270 1.178889 0.000000 0.000000 0.000000
A 2.197975 -1.069520 -3.650046 0.000000 0.000000 0.000000
A 1.311749 -2.147938 3.789418 0.000000 0.000000 0.000000
A -4.504343 3.870609 0.448482 0.000000 0.000000 0.000000
A -4.338356 2.771341 0.359425 0.000000 0.000000 0.000000
A 2.183547 3.567592 4.537652 0.000000 0.000000 0.000000
A 4.062549 -2.346364 -0.295068 0.000000 0.000000 0.000000
A -2.471439 1.787214 3.331587 0.000000 0.000000 0.000000
A 4.317607 4.079327 0.492155 0.000000 0.000000 0.000000
A -3.069082 -0.251591 2.703813 0.000000 0.000000 0.000000
A 1.610466 -4.464935 4.132199 0.000000 0.000000 0.000000
A -4.806412 -4.854830 3.746013 0.000000 0.000000 0.000000
A 2.103279 -3.632062 2.532017 0.000000 0.000000 0.000000
A -4.953664 -1.490438 1.003655 0.000000 0.000000 0.000000
A -1.398066 0.679425 -0.018283 0.000000 0.000000 0.000000
A -3.798425 -3.271137 -4.325370 0.000000 0.000000 0.000000
A 0.610151 4.322101 -1.121152 0.000000 0.000000 0.000000
A 3.475944 1.450028 -0.730819 0.000000 0.000000 0.000000
A 4.178493 -1.547507 3.937448 0.000000 0.000000 0.000000
A -0.975952 2.723463 -4.652254 0.000000 0.000000 0.000000
A -0.982263 -1.104751 -4.663749 0.000000 0.000000 0.000000
A 2.827275 -1.071587 -2.651455 0.000000 0.000000 0.000000
A 2.993060 -1.758807 -0.900058 0.000000 0.000000 0.000000
A -4.631708 -2.292616 1.562253 0.000000 0.000000 0.000000
A 3.795892 1.901016 4.670117 0.000000 0.000000 0.000000
A -1.321884 1.944541 -1.694407 0.000000 0.000000 0.000000
A 4.728497 0.327374 1.697822 0.000000 0.000000 0.000000
A -3.878966 4.612436 4.968030 0.000000 0.000000 0.000000
A 1.192863 3.058433 1.576940 0.000000 0.000000 0.000000
A -3.081101 -2.993302 0.212855 0.000000 0.000000 0.000000
A -3.118819 0.314795 1.194936 0.000000 0.000000 0.000000
A -1.539837 -4.715618 3.277306 0.000000 0.000000 0.000000
A -2.219723 -1.696766 1.530664 0.000000 0.000000 0.000000
A -1.449058 1.051515 -1.045933 0.000000 0.000000 0.000000
A -2.538608 2.314140 -3.368339 0.000000 0.000000 0.000000
A -4.905912 4.319685 2.091634 0.000000 0.000000 0.000000
A -1.198144 0.348585 1.204074 0.000000 0.000000 0.000000
A -4.795220 -1.812316 -3.490721 0.000000 0.000000 0.000000
A -1.276827 -1.623154 3.190752 0.000000 0.000000 0.000000
A -2.275668 4.174107 0.430925 0.000000 0.000000 0.000000
A -3.190860 1.372105 -3.860437 0.000000 0.000000 0.000000
A -2.405454 0.761170 -4.436426 0.000000 0.000000 0.000000
A -1.676848 -2.443409 -2.912918 0.000000 0.000000 0.000000
A -0.961772 2.503509 1.070361 0.000000 0.000000 0.000000
A 2.733234 1.719545 -1.450038 0.000000 0.000000 0.000000
A -1.076583 -1.352720 -3.427304 0.000000 0.000000 0.000000
A 2.392589 -1.844703 1.977141 0.000000 0.000000 0.000000
A -4.213774 -2.037845 -2.604009 0.000000 0.000000 0.000000
A -4.126096 3.129884 -1.777505 0.000000 0.000000 0.000000
A 2.439148 3.889538 0.787636 0.000000 0.000000 0.000000
A 2.009299 -0.090543 4.790765 0.000000 0.000000 0.000000
A -3.913782 -2.502768 -4.962984 0.000000 0.000000 0.000000
A 2.237736 4.814328 2.410019 0.000000 0.000000 0.000000
A 3.512178 3.707702 2.133460 0.000000 0.000000 0.000000
A -2.529272 -4.182075 1.313376 0.000000 0.000000 0.000000
A -1.901296 3.725989 1.324328 0.000000 0.000000 0.000000
A -1.546880 1.149171 -3.846848 0.000000 0.000000 0.000000
A 1.168551 2.957416 -0.501491 0.000000 0.000000 0.000000
A 1.987860 -3.673940 1.333909 0.000000 0.000000 0.000000
A -2.001070 -2.969524 -4.519471 0.000000 0.000000 0.000000
A -4.988533 2.858138 -1.128736 0.000000 0.000000 0.000000
A -4.582605 -4.744102 2.002856 0.000000 0.000000 0.000000
A 2.101886 -2.589221 -2.518129 0.000000 0.000000 0.000000
A -4.083114 0.566171 2.634349 0.000000 0.000000 0.000000
A -3.835415 4.007095 1.250410 0.000000 0.000000 0.000000
A -0.453555 3.644578 -4.222946 0.000000 0.000000 0.000000
A 3.894029 4.373774 -3.242029 0.000000 0.000000 0.000000
A -2.498170 0.943343 -1.015684 0.000000 0.000000 0.000000
A -3.319968 3.793099 -1.788571 0.000000 0.000000 0.000000
A 2.380158 4.693844 -0.976336 0.000000 0.000000 0.000000
A -3.604037 -4.713547 1.435181 0.000000 0.000000 0.000000
A 4.550497 1.513669 -2.316545 0.000000 0.000000 0.000000
A -3.072500 2.464210 3.810408 0.000000 0.000000 0.000000
A 2.247824 -1.542459 4.543185 0.000000 0.000000 0.000000
A -4.863320 -3.351415 -3.986756 0.000000 0.000000 0.000000
A 2.864391 0.158444 4.248791 0.000000 0.000000 0.000000
A 2.693318 -2.464043 4.968361 0.000000 0.000000 0.000000
A 3.180498 -3.452652 2.304361 0.000000 0.000000 0.000000
A -0.464660 3.402445 3.443068 0.000000 0.000000 0.000000
A -3.396542 0.142317 0.108962 0.000000 0.000000 0.000000
A -0.845838 -3.478714 -2.931862 0.000000 0.000000 0.000000
A 3.982362 -3.038209 -3.838509 0.000000 0.000000 0.000000
A -2.865414 2.215905 -4.402731 0.000000 0.000000 0.000000
A -0.777992 -4.652627 -0.588486 0.000000 0.000000 0.000000
A -0.863580 0.173583 -0.908276 0.000000 0.000000 0.000000
A -2.245450 -0.825528 2.139553 0.000000 0.000000 0.000000
A -4.978574 0.439773 0.657080 0.000000 0.000000 0.000000
A 2.677045 -2.761446 1.600033 0.000000 0.000000 0.000000
A -2.261369 1.665044 -4.954087 0.000000 0.000000 0.000000
A -4.845852 4.568268 -3.722066 0.000000 0.000000 0.000000
A 2.473315 2.975757 0.384433 0.000000 0.000000 0.000000
A -4.738285 -2.465387 -0.939995 0.000000 0.000000 0.000000
A 3.285095 -2.879616 4.302506 0.000000 0.000000 0.000000
A 0.738714 -1.689191 -4.398325 0.000000 0.000000 0.000000
A 1.635772 -0.077958 3.177835 0.000000 0.000000 0.000000
A 4.407847 -1.086642 -3.500970 0.000000 0.000000 0.000000
A -1.273161 4.869410 -3.493165 0.000000 0.000000 0.000000
A -0.940038 -4.665222 1.544921 0.000000 0.000000 0.000000
A 3.432327 1.694859 1.928213 0.000000 0.000000 0.000000
A -3.844222 4.801643 3.939424 0.000000 0.000000 0.000000
A 1.518826 -4.541128 0.638832 0.000000 0.000000 0.000000
A 3.941887 -3.411391 -1.682988 0.000000 0.000000 0.000000
A 1.389417 4.691093 -0.454149 0.000000 0.000000 0.000000
A -1.596912 2.897514 -3.070904 0.000000 0.000000 0.000000
A -3.286914 -4.458429 3.381114 0.000000 0.000000 0.000000
A 1.625224 -3.548402 -2.939519 0.000000 0.000000 0.000000
A -1.986457 2.661723 -4.763761 0.000000 0.000000 0.000000
A 4.626804 3.620732 -3.560148 0.000000 0.000000 0.000000
A -3.512172 3.695955 0.305471 0.000000 0.000000 0.000000
A 3.243732 -3.263246 -0.012824 0.000000 0.000000 0.000000
A -2.985518 2.229465 2.399873 0.000000 0.000000 0.000000
A -2.667570 3.327149 -3.127120 0.000000 0.000000 0.000000
A 2.735274 3.623984 -1.088207 0.000000 0.000000 0.000000
A 3.365683 4.804091 2.010836 0.000000 0.000000 0.000000
A 4.637190 -4.913021 0.393514 0.000000 0.000000 0.000000
A -2.696188 -4.916402 -2.082866 0.000000 0.000000 0.000000
A -3.852696 2.050223 -4.255317 0.000000 0.000000 0.000000
A -4.358232 -0.909839 -0.498020 0.000000 0.000000 0.000000
A 2.415022 -2.566715 -1.345459 0.000000 0.000000 0.000000
A 1.329498 4.948378 -4.973878 0.000000 0.000000 0.000000
A -4.199898 -1.532043 0.349518 0.000000 0.000000 0.000000
A 1.155028 0.946941 -2.778356 0.000000 0.000000 0.000000
A 4.103998 -2.978386 0.518673 0.000000 0.000000 0.000000
A 0.556373 4.851309 4.354626 0.000000 0.000000 0.000000
A 1.815877 4.716476 -1.885771 0.000000 0.000000 0.000000
A 1.445315 -4.428976 1.937793 0.000000 0.000000 0.000000
A 0.878303 -3.411925 -4.453620 0.000000 0.000000 0.000000
A 1.509966 -2.157755 1.381979 0.000000 0.000000 0.000000
A 2.330847 -3.659362 0.161497 0.000000 0.000000 0.000000
A 4.359493 -4.036678 -3.784562 0.000000 0.000000 0.000000
A -3.822303 4.809628 -2.035315 0.000000 0.000000 0.000000
A -4.130918 -1.128376 2.415439 0.000000 0.000000 0.000000
A -2.690154 -2.413967 0.932787 0.000000 0.000000 0.000000
A -0.416606 -2.079962 -2.048265 0.000000 0.000000 0.000000
A 2.899625 4.337229 -1.986633 0.000000 0.000000 0.000000
A -0.458909 -1.351238 -1.208155 0.000000 0.000000 0.000000
A 2.028283 2.636415 4.128202 0.000000 0.000000 0.000000
A 3.083128 1.203606 4.163146 0.000000 0.000000 0.000000
A -0.882882 -4.109105 3.777095 0.000000 0.000000 0.000000
A 0.059043 2.695930 -4.694533 0.000000 0.000000 0.000000
A 1.231530 2.177199 3.749699 0.000000 0.000000 0.000000
A -0.483952 3.781394 2.351913 0.000000 0.000000 0.000000
A -1.319276 -0.548655 2.494797 0.000000 0.000000 0.000000
A -2.393131 -0.616008 0.064493 0.000000 0.000000 0.000000
A -3.404547 -2.211916 4.140619 0.000000 0.000000 0.000000
A -3.766104 1.512928 -1.635012 0.000000 0.000000 0.000000
A -0.319955 -1.780921 -0.237350 0.000000 0.000000 0.000000
A 3.952974 -0.892296 0.067234 0.000000 0.000000 0.000000
A -1.504387 0.841185 3.202080 0.000000 0.000000 0.000000
A -4.560631 -0.810403 -3.783803 0.000000 0.000000 0.000000
A 4.542779 3.568781 1.880970 0.000000 0.000000 0.000000
A 4.846922 -3.165316 -2.100758 0.000000 0.000000 0.000000
A 1.353094 0.345050 -0.756253 0.000000 0.000000 0.000000
A -3.319014 -4.855052 -3.071327 0.000000 0.000000 0.000000
A -4.211980 -1.747363 -4.324002 0.000000 0.000000 0.000000
A 1.124698 -2.450397 0.478644 0.000000 0.000000 0.000000
A -1.521159 -2.172456 -3.946518 0.000000 0.000000 0.000000
A 3.413025 -4.287697 -2.245059 0.000000 0.000000 0.000000
A 0.072901 0.120419 4.322825 0.000000 0.000000 0.000000
A -4.675971 4.013254 -4.613568 0.000000 0.000000 0.000000
A -0.906631 -2.079279 -4.899755 0.000000 0.000000 0.000000
A 1.053545 -2.514214 4.806474 0.000000 0.000000 0.000000
A 1.764865 2.773579 -4.887846 0.000000 0.000000 0.000000
A -2.336370 2.988635 3.270851 0.000000 0.000000 0.000000
A 3.110959 -3.575784 1.052948 0.000000 0.000000 0.000000
A -2.594521 -4.899379 0.400388 0.000000 0.000000 0.000000
A 0.112538 4.685834 0.369581 0.000000 0.000000 0.000000
A -3.070671 0.667842 2.226822 0.000000 0.000000 0.000000
A -0.394102 4.643853 -3.972336 0.000000 0.000000 0.000000
A -1.408996 -2.609621 2.917129 0.000000 0.000000 0.000000
A -4.635407 4.214030 4.343154 0.000000 0.000000 0.000000
A -1.077463 4.257604 -2.365249 0.000000 0.000000 0.000000
A 4.805496 3.140959 0.827199 0.000000 0.000000 0.000000
A -0.153183 1.884425 2.838599 0.000000 0.000000 0.000000
A -3.403466 -0.836049 -0.014469 0.000000 0.000000 0.000000
A 1.436991 -4.307730 -2.147168 0.000000 0.000000 0.000000
A -4.917531 -3.336910 3.652559 0.000000 0.000000 0.000000
A -0.120773 -3.131366 -0.982176 0.000000 0.000000 0.000000
A 1.675629 -4.501096 2.900340 0.000000 0.000000 0.000000
A 3.816662 0.453471 -3.856525 0.000000 0.000000 0.000000
A 0.957328 -4.365304 -4.051194 0.000000 0.000000 0.000000
A -2.091717 4.315592 -4.323817 0.000000 0.000000 0.000000
A 4.011948 4.748188 -2.303911 0.000000 0.000000 0.000000
A -3.414743 1.353142 2.909370 0.000000 0.000000 0.000000
A 2.590719 0.508962 0.552040 0.000000 0.000000 0.000000
A 3.341251 -2.801310 -0.901510 0.000000 0.000000 0.000000
A -0.945440 -3.063673 -4.672350 0.000000 0.000000 0.000000
A 3.112962 1.361751 0.350950 0.000000 0.000000 0.000000
A 4.256485 -3.374906 -0.555290 0.000000 0.000000 0.000000
A 2.144355 -2.831584 0.737416 0.000000 0.000000 0.000000
A 3.388618 -4.917187 -1.475756 0.000000 0.000000 0.000000
A -4.752867 -0.197599 2.641210 0.000000 0.000000 0.000000
A 0.401508 2.234035 -3.863083 0.000000 0.000000 0.000000
A 2.369328 -1.629554 -1.927301 0.000000 0.000000 0.000000
A 2.501979 0.602133 3.380616 0.000000 0.000000 0.000000
A -4.829551 1.820301 -1.507210 0.000000 0.000000 0.000000
A -1.717670 -4.090877 -3.163108 0.000000 0.000000 0.000000
A -3.535549 -3.535062 -0.495131 0.000000 0.000000 0.000000
A 4.928171 -0.592139 0.441112 0.000000 0.000000 0.000000
A 1.129712 -0.003793 -3.255162 0.000000 0.000000 0.000000
A 3.044822 4.275026 -3.867062 0.000000 0.000000 0.000000
A 2.495965 -2.551432 -0.271007 0.000000 0.000000 0.000000
A -0.405976 4.396574 -4.988397 0.000000 0.000000 0.000000
A -3.148511 1.852328 -0.874904 0.000000 0.000000 0.000000
A 2.825306 0.839085 2.390326 0.000000 0.000000 0.000000
A -3.319463 2.574185 0.702702 0.000000 0.000000 0.000000
A 1.286918 -2.967699 2.066417 0.000000 0.000000 0.000000
A -1.132078 4.862993 4.220048 0.000000 0.000000 0.000000
A -0.978447 0.359215 4.031961 0.000000 0.000000 0.000000
A 0.049402 -2.648358 -4.718564 0.000000 0.000000 0.000000
A -3.649556 1.579564 0.870505 0.000000 0.000000 0.000000
A 3.165011 -0.890447 0.906816 0.000000 0.000000 0.000000
A 3.728229 -4.491387 1.235407 0.000000 0.000000 0.000000
A 1.306459 -0.235632 2.188869 0.000000 0.000000 0.000000
A -0.368612 2.139536 1.835644 0.000000 0.000000 0.000000
A 1.797312 -3.042225 -4.732791 0.000000 0.000000 0.000000
A -3.345093 2.537914 -1.943671 0.000000 0.000000 0.000000
A 0.556938 -1.526571 1.091012 0.000000 0.000000 0.000000
A 4.212153 -4.948475 3.387963 0.000000 0.000000 0.000000
A 0.303532 3.599532 4.883870 0.000000 0.000000 0.000000
A 0.454639 -2.777048 1.515631 0.000000 0.000000 0.000000
A -1.741840 -4.348645 -0.753725 0.000000 0.000000 0.000000
A -4.815748 -4.917437 -4.657728 0.000000 0.000000 0.000000
A -0.042079 -1.778171 4.677124 0.000000 0.000000 0.000000
A 0.981980 2.971635 4.485805 0.000000 0.000000 0.000000
A -0.694799 4.838825 -1.543606 0.000000 0.000000 0.000000
A 2.304043 4.744007 -4.708369 0.000000 0.000000 0.000000
A -2.336328 2.504709 -0.468115 0.000000 0.000000 0.000000
A -4.340097 1.175248 0.090808 0.000000 0.000000 0.000000
A 1.758602 0.829252 2.400226 0.000000 0.000000 0.000000
A -0.518181 1.721007 3.929697 0.000000 0.000000 0.000000
A -0.179914 -0.922271 -3.328694 0.000000 0.000000 0.000000
A 4.616290 1.423374 1.947254 0.000000 0.000000 0.000000
A 0.137116 1.417394 -2.798043 0.000000 0.000000 0.000000
A 3.864022 -4.111183 0.269793 0.000000 0.000000 0.000000
A 2.472255 1.629920 -0.463253 0.000000 0.000000 0.000000
A -1.478389 3.634747 2.728455 0.000000 0.000000 0.000000
A 0.877010 4.945653 1.238972 0.000000 0.000000 0.000000
A -2.434509 0.289276 -2.572968 0.000000 0.000000 0.000000
A 0.127386 -0.154501 -2.715899 0.000000 0.000000 0.000000
A 0.659792 -0.536866 -1.204861 0.000000 0.000000 0.000000
A -3.291448 2.865205 -0.300202 0.000000 0.000000 0.000000
A 3.846829 -0.939258 3.095180 0.000000 0.000000 0.000000
A -1.219346 -4.754654 -2.470889 0.000000 0.000000 0.000000
A 3.882259 0.128515 2.549290 0.000000 0.000000 0.000000
A 4.793976 0.921183 -3.603201 0.000000 0.000000 0.000000
A -4.945124 -2.554255 0.517395 0.000000 0.000000 0.000000
A -2.344456 -1.898853 -2.199431 0.000000 0.000000 0.000000
A 3.008376 1.699285 -2.606576 0.000000 0.000000 0.000000
A 4.573088 -0.301447 -4.319576 0.000000 0.000000 0.000000
A 3.000133 -0.365785 3.198218 0.000000 0.000000 0.000000
A 2.924823 -0.743102 4.825362 0.000000 0.000000 0.000000
A 3.777207 3.997352 -1.577579 0.000000 0.000000 0.000000
A 1.702433 -4.079990 -4.920824 0.000000 0.000000 0.000000
A 3.369389 -0.059159 0.210573 0.000000 0.000000 0.000000
A 3.959728 1.960779 -1.566530 0.000000 0.000000 0.000000
A 4.957906 3.297742 3.810073 0.000000 0.000000 0.000000
A 4.992049 -0.140556 -2.281730 0.000000 0.000000 0.000000
A -4.907978 -2.262599 3.689703 0.000000 0.000000 0.000000
A -3.982654 4.332077 -0.416775 0.000000 0.000000 0.000000
A 1.770848 -3.334726 -0.858872 0.000000 0.000000 0.000000
A -3.956779 3.057680 4.137619 0.000000 0.000000 0.000000
A 4.202925 1.497204 -4.295599 0.000000 0.000000 0.000000
A 2.281585 1.861224 2.174017 0.000000 0.000000 0.000000
A 3.324187 -3.914417 -0.904723 0.000000 0.000000 0.000000
A -4.798173 -4.167462 2.935264 0.000000 0.000000 0.000000
A -3.799657 2.050456 -0.072312 0.000000 0.000000 0.000000
A 0.453792 -4.267425 0.544270 0.000000 0.000000 0.000000
A 4.847089 -1.672106 -0.067315 0.000000 0.000000 0.000000
A 2.454280 2.169833 -4.263530 0.000000 0.000000 0.000000
A 4.898475 2.117221 1.079135 0.000000 0.000000 0.000000
A 1.920197 2.317977 1.262886 0.000000 0.000000 0.000000
A -1.670835 1.274916 0.819065 0.000000 0.000000 0.000000
A 1.412297 1.727793 4.719614 0.000000 0.000000 0.000000
A -1.954403 -1.449288 0.574976 0.000000 0.000000 0.000000
A -3.804636 -0.161465 -2.405293 0.000000 0.000000 0.000000
A 4.094861 2.735757 3.980206 0.000000 0.000000 0.000000
A -2.387602 -4.033004 -1.646915 0.000000 0.000000 0.000000
A -0.915328 1.337307 -2.376788 0.000000 0.000000 0.000000
A 4.907340 -1.910917 -1.983223 0.000000 0.000000 0.000000
A -0.929086 -0.360056 -2.758287 0.000000 0.000000 0.000000
A -3.494136 -0.969998 -4.485032 0.000000 0.000000 0.000000
A 3.118922 1.420554 -3.904916 0.000000 0.000000 0.000000
A 4.499102 3.682675 4.716590 0.000000 0.000000 0.000000
A 0.472097 4.133375 -4.129083 0.000000 0.000000 0.000000
A -2.309413 0.452236 0.401859 0.000000 0.000000 0.000000
A -0.628783 2.721325 -3.613486 0.000000 0.000000 0.000000
A 0.949697 -3.742941 2.707168 0.000000 0.000000 0.000000
A 3.716523 3.469442 -0.720130 0.000000 0.000000 0.000000
A -4.466302 2.876076 -4.659087 0.000000 0.000000 0.000000
A 3.139209 -0.011553 1.338287 0.000000 0.000000 0.000000
A -3.933559 -1.113346 -2.994515 0.000000 0.000000 0.000000
A 1.285645 -4.277478 -0.249150 0.000000 0.000000 0.000000
A -0.497328 0.001737 0.091436 0.000000 0.000000 0.000000
A 4.621848 -0.051673 4.479609 0.000000 0.000000 0.000000
A 2.249384 1.721103 3.724528 0.000000 0.000000 0.000000
A -3.235061 -4.596350 4.537735 0.000000 0.000000 0.000000
A 4.105026 -3.621461 4.050266 0.000000 0.000000 0.000000
A 0.650820 4.461079 -3.048744 0.000000 0.000000 0.000000
A -1.086452 -3.841833 2.788356 0.000000 0.000000 0.000000
A -0.248055 -1.383270 3.636086 0.000000 0.000000 0.000000
A -4.048888 -1.855340 -1.407177 0.000000 0.000000 0.000000
A 1.394523 4.512827 3.399170 0.000000 0.000000 0.000000
A -4.954238 -1.177856 -2.676869 0.000000 0.000000 0.000000
A 3.337331 4.942233 -4.822442 0.000000 0.000000 0.000000
A 3.022369 4.115348 -0.153058 0.000000 0.000000 0.000000
A -4.337033 0.398161 4.673865 0.000000 0.000000 0.000000
A -1.950116 4.401266 4.644493 0.000000 0.000000 0.000000
A -1.577381 3.361592 -3.994781 0.000000 0.000000 0.000000
A 0.420054 0.886426 -1.972347 0.000000 0.000000 0.000000
A -3.177680 1.439416 3.994624 0.000000 0.000000 0.000000
A 2.021163 0.318535 1.457265 0.000000 0.000000 0.000000
A -3.743634 -4.256377 2.437074 0.000000 0.000000 0.000000
A -3.466831 0.314330 -4.539136 0.000000 0.000000 0.000000
A 2.304160 -0.948004 -1.176072 0.000000 0.000000 0.000000
A -2.127931 0.154419 -1.572194 0.000000 0.000000 0.000000
A -0.733622 -2.398047 -3.263360 0.000000 0.000000 0.000000
A 2.311302 -0.147203 -0.406274 0.000000 0.000000 0.000000
A -4.538828 -3.296344 2.448100 0.000000 0.000000 0.000000
A -2.999012 -0.615804 -2.935675 0.000000 0.000000 0.000000
A 4.783607 3.906781 -1.222461 0.000000 0.000000 0.000000
A -4.506829 3.352359 1.669353 0.000000 0.000000 0.000000
A 4.946583 -4.048559 -1.310187 0.000000 0.000000 0.000000
A 0.133314 2.993968 1.423270 0.000000 0.000000 0.000000
A 4.745728 0.632880 -4.660194 0.000000 0.000000 0.000000
A 1.140684 -0.370357 1.157671 0.000000 0.000000 0.000000
A 0.182369 2.944489 2.488139 0.000000 0.000000 0.000000
A -2.307511 4.337654 2.121155 0.000000 0.000000 0.000000
A 2.643633 -3.179521 -3.248768 0.000000 0.000000 0.000000
A 3.130583 -0.833580 -0.555646 0.000000 0.000000 0.000000
A 3.991120 -1.466619 -0.955688 0.000000 0.000000 0.000000
A 0.548304 -1.905630 2.091306 0.000000 0.000000 0.000000
A 3.484057 -3.857738 4.816444 0.000000 0.000000 0.000000
A 2.907455 -0.058715 -2.380197 0.000000 0.000000 0.000000
A -2.916072 -1.158888 0.954681 0.000000 0.000000 0.000000
A -1.867749 2.273705 2.606920 0.000000 0.000000 0.000000
A 4.649792 -2.359173 -4.194089 0.000000 0.000000 0.000000
A 1.137118 0.105462 4.184957 0.000000 0.000000 0.000000
A -2.041616 3.378155 4.365374 0.000000 0.000000 0.000000
A -0.674541 1.658863 -3.347109 0.000000 0.000000 0.000000
A -2.170119 -4.551667 4.779173 0.000000 0.000000 0.000000
A 3.977814 2.432711 0.568218 0.000000 0.000000 0.000000
A 0.965604 -0.023965 -2.126088 0.000000 0.000000 0.000000
A -1.479268 -2.470490 -1.888127 0.000000 0.000000 0.000000
A 3.124688 4.946181 -2.872664 0.000000 0.000000 0.000000
A -0.903728 3.409571 -0.686318 0.000000 0.000000 0.000000
A -2.146483 0.187314 2.621331 0.000000 0.000000 0.000000
A 4.140663 0.058714 0.869462 0.000000 0.000000 0.000000
A 3.228430 -4.199832 3.909535 0.000000 0.000000 0.000000
A -2.721662 -2.583919 2.006997 0.000000 0.000000 0.000000
A -1.435786 -3.161206 -3.683113 0.000000 0.000000 0.000000
A 3.083542 -2.115044 -2.780917 0.000000 0.000000 0.000000
A 1.087737 1.907642 -3.153527 0.000000 0.000000 0.000000
A -0.092939 -3.832825 -0.232222 0.000000 0.000000 0.000000
A -0.863083 -2.362148 -0.961684 0.000000 0.000000 0.000000
A 1.451967 2.865930 -1.581416 0.000000 0.000000 0.000000
A 0.374209 -2.584796 4.018914 0.000000 0.000000 0.000000
A -4.207010 2.580788 -2.692824 0.000000 0.000000 0.000000
A 2.285319 -2.832566 3.888943 0.000000 0.000000 0.000000
A -2.400028 4.135543 -1.490483 0.000000 0.000000 0.000000
A -2.669714 -4.044476 -2.752299 0.000000 0.000000 0.000000
A 4.974188 2.431120 3.136546 0.000000 0.000000 0.000000
A 4.192470 -4.492418 -4.733754 0.000000 0.000000 0.000000
A -0.255834 -3.873481 1.262636 0.000000 0.000000 0.000000
A 2.507867 2.736999 -2.865824 0.000000 0.000000 0.000000
A -2.917912 -0.278548 3.768598 0.000000 0.000000 0.000000
A -1.098482 3.791828 4.126979 0.000000 0.000000 0.000000
A -2.740012 -0.413500 -4.055250 0.000000 0.000000 0.000000
A 3.851215 -0.029621 -2.002011 0.000000 0.000000 0.000000
A -3.250998 -2.646564 -0.920917 0.000000 0.000000 0.000000
A -3.331780 -4.036711 0.520927 0.000000 0.000000 0.000000
A 1.759843 -0.966727 -4.711339 0.000000 0.000000 0.000000
A 4.458115 2.655264 -4.924350 0.000000 0.000000 0.000000
A -0.435214 -3.125987 3.267365 0.000000 0.000000 0.000000
A -2.208632 1.901859 -1.285530 0.000000 0.000000 0.000000
A 3.365954 1.087313 -4.786312 0.000000 0.000000 0.000000
A -1.745687 -4.996365 -1.611089 0.000000 0.000000 0.000000
A -3.514052 -0.923499 -1.129582 0.000000 0.000000 0.000000
A -2.630070 -2.837214 -2.586690 0.000000 0.000000 0.000000
A -1.337659 4.094401 -1.345602 0.000000 0.000000 0.000000
A -0.183806 -3.392124 4.348605 0.000000 0.000000 0.000000
A -4.972400 -1.511532 4.451428 0.000000 0.000000 0.000000
A 4.801425 -3.729544 0.395495 0.000000 0.000000 0.000000
A -2.481016 -3.358818 -0.600022 0.000000 0.000000 0.000000
A -1.722015 -0.008872 -4.487312 0.000000 0.000000 0.000000
A 1.396292 -2.136005 -1.671491 0.000000 0.000000 0.000000
A 0.307323 1.431440 1.412929 0.000000 0.000000 0.000000
A 4.452042 -0.142851 3.415176 0.000000 0.000000 0.000000
A -1.277928 3.788272 -4.901857 0.000000 0.000000 0.000000
A -1.199371 -4.169716 -1.654901 0.000000 0.000000 0.000000
A 3.131655 -3.043520 -2.312911 0.000000 0.000000 0.000000
A -2.888914 4.546617 1.250298 0.000000 0.000000 0.000000
A -0.936339 -0.378874 -3.871159 0.000000 0.000000 0.000000
A -1.250829 -3.690209 -0.085731 0.000000 0.000000 0.000000
A -2.088020 2.387866 4.222165 0.000000 0.000000 0.000000
A 2.249473 2.669379 -0.634917 0.000000 0.000000 0.000000
A -3.872629 4.801807 -3.989799 0.000000 0.000000 0.000000
A 4.773082 3.263009 -0.166383 0.000000 0.000000 0.000000
A 1.523845 -1.309733 0.536222 0.000000 0.000000 0.000000
A -3.035830 -2.308117 2.954304 0.000000 0.000000 0.000000
A -1.960318 1.092260 -2.089404 0.000000 0.000000 0.000000
A -2.920864 4.306304 -3.623842 0.000000 0.000000 0.000000
A -3.274500 4.864651 2.308879 0.000000 0.000000 0.000000
A -2.399294 -3.680248 -3.862674 0.000000 0.000000 0.000000
A 1.263201 0.841624 -3.823784 0.000000 0.000000 0.000000
A -1.367865 4.214181 -0.137230 0.000000 0.000000 0.000000