3000
step:0 columns:id,pos dt:1 cell:17.099760055541992,17.099760055541992,17.099760055541992 
B 8.549879 8.549879 8.549879
B 8.549879 8.549879 -7.409896
A 8.549879 8.549879 -6.269912
A 8.549879 8.549879 -5.129928
A 8.549879 8.549879 -3.989944
B 8.549879 8.549879 -2.849960
A 8.549879 8.549879 -1.709976
A 8.549879 8.549879 -0.569992
A 8.549879 8.549879 0.569992
B 8.549879 8.549879 1.709976
B 8.549879 8.549879 2.849960
A 8.549879 8.549879 3.989944
B 8.549879 8.549879 5.129928
A 8.549879 8.549879 6.269912
A 8.549879 8.549879 7.409896
B 8.549879 -7.409896 8.549879
B 8.549879 -7.409896 -7.409896
B 8.549879 -7.409896 -6.269912
B 8.549879 -7.409896 -5.129928
A 8.549879 -7.409896 -3.989944
B 8.549879 -7.409896 -2.849960
A 8.549879 -7.409896 -1.709976
A 8.549879 -7.409896 -0.569992
A 8.549879 -7.409896 0.569992
A 8.549879 -7.409896 1.709976
B 8.549879 -7.409896 2.849960
A 8.549879 -7.409896 3.989944
A 8.549879 -7.409896 5.129928
A 8.549879 -7.409896 6.269912
B 8.549879 -7.409896 7.409896
A 8.549879 -6.269912 8.549879
A 8.549879 -6.269912 -7.409896
B 8.549879 -6.269912 -6.269912
B 8.549879 -6.269912 -5.129928
A 8.549879 -6.269912 -3.989944
A 8.549879 -6.269912 -2.849960
B 8.549879 -6.269912 -1.709976
A 8.549879 -6.269912 -0.569992
B 8.549879 -6.269912 0.569992
A 8.549879 -6.269912 1.709976
B 8.549879 -6.269912 2.849960
B 8.549879 -6.269912 3.989944
B 8.549879 -6.269912 5.129928
B 8.549879 -6.269912 6.269912
A 8.549879 -6.269912 7.409896
B 8.549879 -5.129928 8.549879
A 8.549879 -5.129928 -7.409896
A 8.549879 -5.129928 -6.269912
B 8.549879 -5.129928 -5.129928
A 8.549879 -5.129928 -3.989944
A 8.549879 -5.129928 -2.849960
B 8.549879 -5.129928 -1.709976
A 8.549879 -5.129928 -0.569992
A 8.549879 -5.129928 0.569992
B 8.549879 -5.129928 1.709976
B 8.549879 -5.129928 2.849960
A 8.549879 -5.129928 3.989944
A 8.549879 -5.129928 5.129928
A 8.549879 -5.129928 6.269912
A 8.549879 -5.129928 7.409896
B 8.549879 -3.989944 8.549879
A 8.549879 -3.989944 -7.409896
A 8.549879 -3.989944 -6.269912
B 8.549879 -3.989944 -5.129928
B 8.549879 -3.989944 -3.989944
A 8.549879 -3.989944 -2.849960
A 8.549879 -3.989944 -1.709976
B 8.549879 -3.989944 -0.569992
A 8.549879 -3.989944 0.569992
B 8.549879 -3.989944 1.709976
B 8.549879 -3.989944 2.849960
B 8.549879 -3.989944 3.989944
A 8.549879 -3.989944 5.129928
B 8.549879 -3.989944 6.269912
A 8.549879 -3.989944 7.409896
A 8.549879 -2.849960 8.549879
A 8.549879 -2.849960 -7.409896
B 8.549879 -2.849960 -6.269912
B 8.549879 -2.849960 -5.129928
A 8.549879 -2.849960 -3.989944
B 8.549879 -2.849960 -2.849960
A 8.549879 -2.849960 -1.709976
B 8.549879 -2.849960 -0.569992
A 8.549879 -2.849960 0.569992
A 8.549879 -2.849960 1.709976
B 8.549879 -2.849960 2.849960
A 8.549879 -2.849960 3.989944
B 8.549879 -2.849960 5.129928
A 8.549879 -2.849960 6.269912
B 8.549879 -2.849960 7.409896
A 8.549879 -1.709976 8.549879
B 8.549879 -1.709976 -7.409896
A 8.549879 -1.709976 -6.269912
B 8.549879 -1.709976 -5.129928
B 8.549879 -1.709976 -3.989944
A 8.549879 -1.709976 -2.849960
B 8.549879 -1.709976 -1.709976
A 8.549879 -1.709976 -0.569992
B 8.549879 -1.709976 0.569992
A 8.549879 -1.709976 1.709976
B 8.549879 -1.709976 2.849960
B 8.549879 -1.709976 3.989944
A 8.549879 -1.709976 5.129928
B 8.549879 -1.709976 6.269912
A 8.549879 -1.709976 7.409896
A 8.549879 -0.569992 8.549879
A 8.549879 -0.569992 -7.409896
B 8.549879 -0.569992 -6.269912
B 8.549879 -0.569992 -5.129928
A 8.549879 -0.569992 -3.989944
B 8.549879 -0.569992 -2.849960
B 8.549879 -0.569992 -1.709976
B 8.549879 -0.569992 -0.569992
B 8.549879 -0.569992 0.569992
B 8.549879 -0.569992 1.709976
B 8.549879 -0.569992 2.849960
A 8.549879 -0.569992 3.989944
B 8.549879 -0.569992 5.129928
B 8.549879 -0.569992 6.269912
B 8.549879 -0.569992 7.409896
A 8.549879 0.569992 8.549879
B 8.549879 0.569992 -7.409896
B 8.549879 0.569992 -6.269912
A 8.549879 0.569992 -5.129928
B 8.549879 0.569992 -3.989944
A 8.549879 0.569992 -2.849960
A 8.549879 0.569992 -1.709976
A 8.549879 0.569992 -0.569992
B 8.549879 0.569992 0.569992
A 8.549879 0.569992 1.709976
A 8.549879 0.569992 2.849960
A 8.549879 0.569992 3.989944
A 8.549879 0.569992 5.129928
A 8.549879 0.569992 6.269912
A 8.549879 0.569992 7.409896
A 8.549879 1.709976 8.549879
A 8.549879 1.709976 -7.409896
B 8.549879 1.709976 -6.269912
B 8.549879 1.709976 -5.129928
A 8.549879 1.709976 -3.989944
A 8.549879 1.709976 -2.849960
B 8.549879 1.709976 -1.709976
B 8.549879 1.709976 -0.569992
A 8.549879 1.709976 0.569992
A 8.549879 1.709976 1.709976
A 8.549879 1.709976 2.849960
A 8.549879 1.709976 3.989944
A 8.549879 1.709976 5.129928
A 8.549879 1.709976 6.269912
B 8.549879 1.709976 7.409896
A 8.549879 2.849960 8.549879
A 8.549879 2.849960 -7.409896
A 8.549879 2.849960 -6.269912
B 8.549879 2.849960 -5.129928
B 8.549879 2.849960 -3.989944
A 8.549879 2.849960 -2.849960
B 8.549879 2.849960 -1.709976
A 8.549879 2.849960 -0.569992
B 8.549879 2.849960 0.569992
B 8.549879 2.849960 1.709976
B 8.549879 2.849960 2.849960
A 8.549879 2.849960 3.989944
B 8.549879 2.849960 5.129928
B 8.549879 2.849960 6.269912
A 8.549879 2.849960 7.409896
A 8.549879 3.989944 8.549879
B 8.549879 3.989944 -7.409896
A 8.549879 3.989944 -6.269912
B 8.549879 3.989944 -5.129928
B 8.549879 3.989944 -3.989944
A 8.549879 3.989944 -2.849960
A 8.549879 3.989944 -1.709976
B 8.549879 3.989944 -0.569992
B 8.549879 3.989944 0.569992
B 8.549879 3.989944 1.709976
A 8.549879 3.989944 2.849960
A 8.549879 3.989944 3.989944
B 8.549879 3.989944 5.129928
B 8.549879 3.989944 6.269912
B 8.549879 3.989944 7.409896
B 8.549879 5.129928 8.549879
B 8.549879 5.129928 -7.409896
B 8.549879 5.129928 -6.269912
B 8.549879 5.129928 -5.129928
A 8.549879 5.129928 -3.989944
A 8.549879 5.129928 -2.849960
B 8.549879 5.129928 -1.709976
A 8.549879 5.129928 -0.569992
A 8.549879 5.129928 0.569992
B 8.549879 5.129928 1.709976
B 8.549879 5.129928 2.849960
A 8.549879 5.129928 3.989944
B 8.549879 5.129928 5.129928
A 8.549879 5.129928 6.269912
A 8.549879 5.129928 7.409896
A 8.549879 6.269912 8.549879
B 8.549879 6.269912 -7.409896
A 8.549879 6.269912 -6.269912
B 8.549879 6.269912 -5.129928
B 8.549879 6.269912 -3.989944
A 8.549879 6.269912 -2.849960
A 8.549879 6.269912 -1.709976
A 8.549879 6.269912 -0.569992
A 8.549879 6.269912 0.569992
B 8.549879 6.269912 1.709976
B 8.549879 6.269912 2.849960
B 8.549879 6.269912 3.989944
B 8.549879 6.269912 5.129928
B 8.549879 6.269912 6.269912
A 8.549879 6.269912 7.409896
B 8.549879 7.409896 8.549879
B 8.549879 7.409896 -7.409896
A 8.549879 7.409896 -6.269912
A 8.549879 7.409896 -5.129928
B 8.549879 7.409896 -3.989944
A 8.549879 7.409896 -2.849960
A 8.549879 7.409896 -1.709976
A 8.549879 7.409896 -0.569992
A 8.549879 7.409896 0.569992
B 8.549879 7.409896 1.709976
A 8.549879 7.409896 2.849960
A 8.549879 7.409896 3.989944
B 8.549879 7.409896 5.129928
A 8.549879 7.409896 6.269912
A 8.549879 7.409896 7.409896
A -7.409896 8.549879 8.549879
B -7.409896 8.549879 -7.409896
A -7.409896 8.549879 -6.269912
A -7.409896 8.549879 -5.129928
A -7.409896 8.549879 -3.989944
B -7.409896 8.549879 -2.849960
B -7.409896 8.549879 -1.709976
B -7.409896 8.549879 -0.569992
A -7.409896 8.549879 0.569992
A -7.409896 8.549879 1.709976
B -7.409896 8.549879 2.849960
A -7.409896 8.549879 3.989944
A -7.409896 8.549879 5.129928
B -7.409896 8.549879 6.269912
B -7.409896 8.549879 7.409896
A -7.409896 -7.409896 8.549879
A -7.409896 -7.409896 -7.409896
A -7.409896 -7.409896 -6.269912
A -7.409896 -7.409896 -5.129928
A -7.409896 -7.409896 -3.989944
B -7.409896 -7.409896 -2.849960
B -7.409896 -7.409896 -1.709976
B -7.409896 -7.409896 -0.569992
B -7.409896 -7.409896 0.569992
A -7.409896 -7.409896 1.709976
B -7.409896 -7.409896 2.849960
B -7.409896 -7.409896 3.989944
A -7.409896 -7.409896 5.129928
A -7.409896 -7.409896 6.269912
A -7.409896 -7.409896 7.409896
B -7.409896 -6.269912 8.549879
A -7.409896 -6.269912 -7.409896
B -7.409896 -6.269912 -6.269912
A -7.409896 -6.269912 -5.129928
B -7.409896 -6.269912 -3.989944
B -7.409896 -6.269912 -2.849960
A -7.409896 -6.269912 -1.709976
A -7.409896 -6.269912 -0.569992
A -7.409896 -6.269912 0.569992
B -7.409896 -6.269912 1.709976
A -7.409896 -6.269912 2.849960
B -7.409896 -6.269912 3.989944
B -7.409896 -6.269912 5.129928
B -7.409896 -6.269912 6.269912
A -7.409896 -6.269912 7.409896
A -7.409896 -5.129928 8.549879
B -7.409896 -5.129928 -7.409896
A -7.409896 -5.129928 -6.269912
B -7.409896 -5.129928 -5.129928
A -7.409896 -5.129928 -3.989944
B -7.409896 -5.129928 -2.849960
A -7.409896 -5.129928 -1.709976
A -7.409896 -5.129928 -0.569992
A -7.409896 -5.129928 0.569992
A -7.409896 -5.129928 1.709976
B -7.409896 -5.129928 2.849960
A -7.409896 -5.129928 3.989944
A -7.409896 -5.129928 5.129928
A -7.409896 -5.129928 6.269912
B -7.409896 -5.129928 7.409896
A -7.409896 -3.989944 8.549879
A -7.409896 -3.989944 -7.409896
A -7.409896 -3.989944 -6.269912
B -7.409896 -3.989944 -5.129928
B -7.409896 -3.989944 -3.989944
B -7.409896 -3.989944 -2.849960
A -7.409896 -3.989944 -1.709976
A -7.409896 -3.989944 -0.569992
B -7.409896 -3.989944 0.569992
B -7.409896 -3.989944 1.709976
B -7.409896 -3.989944 2.849960
B -7.409896 -3.989944 3.989944
A -7.409896 -3.989944 5.129928
B -7.409896 -3.989944 6.269912
B -7.409896 -3.989944 7.409896
A -7.409896 -2.849960 8.549879
A -7.409896 -2.849960 -7.409896
A -7.409896 -2.849960 -6.269912
B -7.409896 -2.849960 -5.129928
A -7.409896 -2.849960 -3.989944
A -7.409896 -2.849960 -2.849960
B -7.409896 -2.849960 -1.709976
B -7.409896 -2.849960 -0.569992
B -7.409896 -2.849960 0.569992
A -7.409896 -2.849960 1.709976
B -7.409896 -2.849960 2.849960
A -7.409896 -2.849960 3.989944
A -7.409896 -2.849960 5.129928
A -7.409896 -2.849960 6.269912
B -7.409896 -2.849960 7.409896
B -7.409896 -1.709976 8.549879
A -7.409896 -1.709976 -7.409896
A -7.409896 -1.709976 -6.269912
A -7.409896 -1.709976 -5.129928
B -7.409896 -1.709976 -3.989944
A -7.409896 -1.709976 -2.849960
B -7.409896 -1.709976 -1.709976
A -7.409896 -1.709976 -0.569992
B -7.409896 -1.709976 0.569992
A -7.409896 -1.709976 1.709976
A -7.409896 -1.709976 2.849960
B -7.409896 -1.709976 3.989944
A -7.409896 -1.709976 5.129928
B -7.409896 -1.709976 6.269912
B -7.409896 -1.709976 7.409896
A -7.409896 -0.569992 8.549879
B -7.409896 -0.569992 -7.409896
B -7.409896 -0.569992 -6.269912
A -7.409896 -0.569992 -5.129928
A -7.409896 -0.569992 -3.989944
A -7.409896 -0.569992 -2.849960
B -7.409896 -0.569992 -1.709976
B -7.409896 -0.569992 -0.569992
A -7.409896 -0.569992 0.569992
A -7.409896 -0.569992 1.709976
A -7.409896 -0.569992 2.849960
A -7.409896 -0.569992 3.989944
A -7.409896 -0.569992 5.129928
B -7.409896 -0.569992 6.269912
A -7.409896 -0.569992 7.409896
B -7.409896 0.569992 8.549879
A -7.409896 0.569992 -7.409896
B -7.409896 0.569992 -6.269912
B -7.409896 0.569992 -5.129928
B -7.409896 0.569992 -3.989944
A -7.409896 0.569992 -2.849960
B -7.409896 0.569992 -1.709976
B -7.409896 0.569992 -0.569992
B -7.409896 0.569992 0.569992
B -7.409896 0.569992 1.709976
A -7.409896 0.569992 2.849960
B -7.409896 0.569992 3.989944
B -7.409896 0.569992 5.129928
A -7.409896 0.569992 6.269912
A -7.409896 0.569992 7.409896
A -7.409896 1.709976 8.549879
A -7.409896 1.709976 -7.409896
B -7.409896 1.709976 -6.269912
B -7.409896 1.709976 -5.129928
A -7.409896 1.709976 -3.989944
A -7.409896 1.709976 -2.849960
B -7.409896 1.709976 -1.709976
A -7.409896 1.709976 -0.569992
A -7.409896 1.709976 0.569992
B -7.409896 1.709976 1.709976
B -7.409896 1.709976 2.849960
A -7.409896 1.709976 3.989944
A -7.409896 1.709976 5.129928
A -7.409896 1.709976 6.269912
B -7.409896 1.709976 7.409896
B -7.409896 2.849960 8.549879
B -7.409896 2.849960 -7.409896
A -7.409896 2.849960 -6.269912
B -7.409896 2.849960 -5.129928
B -7.409896 2.849960 -3.989944
B -7.409896 2.849960 -2.849960
B -7.409896 2.849960 -1.709976
B -7.409896 2.849960 -0.569992
A -7.409896 2.849960 0.569992
B -7.409896 2.849960 1.709976
A -7.409896 2.849960 2.849960
A -7.409896 2.849960 3.989944
A -7.409896 2.849960 5.129928
B -7.409896 2.849960 6.269912
B -7.409896 2.849960 7.409896
B -7.409896 3.989944 8.549879
A -7.409896 3.989944 -7.409896
B -7.409896 3.989944 -6.269912
A -7.409896 3.989944 -5.129928
B -7.409896 3.989944 -3.989944
A -7.409896 3.989944 -2.849960
A -7.409896 3.989944 -1.709976
A -7.409896 3.989944 -0.569992
A -7.409896 3.989944 0.569992
B -7.409896 3.989944 1.709976
B -7.409896 3.989944 2.849960
A -7.409896 3.989944 3.989944
B -7.409896 3.989944 5.129928
B -7.409896 3.989944 6.269912
B -7.409896 3.989944 7.409896
A -7.409896 5.129928 8.549879
B -7.409896 5.129928 -7.409896
B -7.409896 5.129928 -6.269912
A -7.409896 5.129928 -5.129928
A -7.409896 5.129928 -3.989944
B -7.409896 5.129928 -2.849960
B -7.409896 5.129928 -1.709976
B -7.409896 5.129928 -0.569992
A -7.409896 5.129928 0.569992
A -7.409896 5.129928 1.709976
A -7.409896 5.129928 2.849960
A -7.409896 5.129928 3.989944
B -7.409896 5.129928 5.129928
A -7.409896 5.129928 6.269912
B -7.409896 5.129928 7.409896
B -7.409896 6.269912 8.549879
B -7.409896 6.269912 -7.409896
B -7.409896 6.269912 -6.269912
A -7.409896 6.269912 -5.129928
B -7.409896 6.269912 -3.989944
B -7.409896 6.269912 -2.849960
A -7.409896 6.269912 -1.709976
B -7.409896 6.269912 -0.569992
B -7.409896 6.269912 0.569992
B -7.409896 6.269912 1.709976
B -7.409896 6.269912 2.849960
A -7.409896 6.269912 3.989944
B -7.409896 6.269912 5.129928
A -7.409896 6.269912 6.269912
B -7.409896 6.269912 7.409896
A -7.409896 7.409896 8.549879
A -7.409896 7.409896 -7.409896
A -7.409896 7.409896 -6.269912
B -7.409896 7.409896 -5.129928
B -7.409896 7.409896 -3.989944
B -7.409896 7.409896 -2.849960
A -7.409896 7.409896 -1.709976
B -7.409896 7.409896 -0.569992
A -7.409896 7.409896 0.569992
B -7.409896 7.409896 1.709976
A -7.409896 7.409896 2.849960
A -7.409896 7.409896 3.989944
A -7.409896 7.409896 5.129928
A -7.409896 7.409896 6.269912
B -7.409896 7.409896 7.409896
B -6.269912 8.549879 8.549879
A -6.269912 8.549879 -7.409896
A -6.269912 8.549879 -6.269912
B -6.269912 8.549879 -5.129928
B -6.269912 8.549879 -3.989944
B -6.269912 8.549879 -2.849960
B -6.269912 8.549879 -1.709976
B -6.269912 8.549879 -0.569992
B -6.269912 8.549879 0.569992
B -6.269912 8.549879 1.709976
B -6.269912 8.549879 2.849960
A -6.269912 8.549879 3.989944
B -6.269912 8.549879 5.129928
B -6.269912 8.549879 6.269912
A -6.269912 8.549879 7.409896
B -6.269912 -7.409896 8.549879
B -6.269912 -7.409896 -7.409896
A -6.269912 -7.409896 -6.269912
B -6.269912 -7.409896 -5.129928
A -6.269912 -7.409896 -3.989944
A -6.269912 -7.409896 -2.849960
B -6.269912 -7.409896 -1.709976
A -6.269912 -7.409896 -0.569992
B -6.269912 -7.409896 0.569992
A -6.269912 -7.409896 1.709976
B -6.269912 -7.409896 2.849960
A -6.269912 -7.409896 3.989944
B -6.269912 -7.409896 5.129928
A -6.269912 -7.409896 6.269912
A -6.269912 -7.409896 7.409896
A -6.269912 -6.269912 8.549879
A -6.269912 -6.269912 -7.409896
B -6.269912 -6.269912 -6.269912
B -6.269912 -6.269912 -5.129928
A -6.269912 -6.269912 -3.989944
A -6.269912 -6.269912 -2.849960
A -6.269912 -6.269912 -1.709976
B -6.269912 -6.269912 -0.569992
B -6.269912 -6.269912 0.569992
B -6.269912 -6.269912 1.709976
A -6.269912 -6.269912 2.849960
A -6.269912 -6.269912 3.989944
A -6.269912 -6.269912 5.129928
B -6.269912 -6.269912 6.269912
A -6.269912 -6.269912 7.409896
B -6.269912 -5.129928 8.549879
B -6.269912 -5.129928 -7.409896
A -6.269912 -5.129928 -6.269912
B -6.269912 -5.129928 -5.129928
A -6.269912 -5.129928 -3.989944
A -6.269912 -5.129928 -2.849960
B -6.269912 -5.129928 -1.709976
A -6.269912 -5.129928 -0.569992
B -6.269912 -5.129928 0.569992
A -6.269912 -5.129928 1.709976
B -6.269912 -5.129928 2.849960
B -6.269912 -5.129928 3.989944
A -6.269912 -5.129928 5.129928
B -6.269912 -5.129928 6.269912
A -6.269912 -5.129928 7.409896
B -6.269912 -3.989944 8.549879
B -6.269912 -3.989944 -7.409896
B -6.269912 -3.989944 -6.269912
A -6.269912 -3.989944 -5.129928
A -6.269912 -3.989944 -3.989944
B -6.269912 -3.989944 -2.849960
A -6.269912 -3.989944 -1.709976
A -6.269912 -3.989944 -0.569992
A -6.269912 -3.989944 0.569992
B -6.269912 -3.989944 1.709976
A -6.269912 -3.989944 2.849960
A -6.269912 -3.989944 3.989944
A -6.269912 -3.989944 5.129928
A -6.269912 -3.989944 6.269912
A -6.269912 -3.989944 7.409896
A -6.269912 -2.849960 8.549879
A -6.269912 -2.849960 -7.409896
A -6.269912 -2.849960 -6.269912
A -6.269912 -2.849960 -5.129928
B -6.269912 -2.849960 -3.989944
B -6.269912 -2.849960 -2.849960
A -6.269912 -2.849960 -1.709976
A -6.269912 -2.849960 -0.569992
B -6.269912 -2.849960 0.569992
B -6.269912 -2.849960 1.709976
A -6.269912 -2.849960 2.849960
A -6.269912 -2.849960 3.989944
B -6.269912 -2.849960 5.129928
B -6.269912 -2.849960 6.269912
A -6.269912 -2.849960 7.409896
B -6.269912 -1.709976 8.549879
A -6.269912 -1.709976 -7.409896
A -6.269912 -1.709976 -6.269912
A -6.269912 -1.709976 -5.129928
A -6.269912 -1.709976 -3.989944
B -6.269912 -1.709976 -2.849960
A -6.269912 -1.709976 -1.709976
B -6.269912 -1.709976 -0.569992
B -6.269912 -1.709976 0.569992
B -6.269912 -1.709976 1.709976
B -6.269912 -1.709976 2.849960
B -6.269912 -1.709976 3.989944
A -6.269912 -1.709976 5.129928
B -6.269912 -1.709976 6.269912
B -6.269912 -1.709976 7.409896
B -6.269912 -0.569992 8.549879
A -6.269912 -0.569992 -7.409896
A -6.269912 -0.569992 -6.269912
A -6.269912 -0.569992 -5.129928
A -6.269912 -0.569992 -3.989944
A -6.269912 -0.569992 -2.849960
A -6.269912 -0.569992 -1.709976
A -6.269912 -0.569992 -0.569992
A -6.269912 -0.569992 0.569992
B -6.269912 -0.569992 1.709976
B -6.269912 -0.569992 2.849960
A -6.269912 -0.569992 3.989944
A -6.269912 -0.569992 5.129928
B -6.269912 -0.569992 6.269912
A -6.269912 -0.569992 7.409896
B -6.269912 0.569992 8.549879
B -6.269912 0.569992 -7.409896
A -6.269912 0.569992 -6.269912
B -6.269912 0.569992 -5.129928
B -6.269912 0.569992 -3.989944
B -6.269912 0.569992 -2.849960
B -6.269912 0.569992 -1.709976
B -6.269912 0.569992 -0.569992
B -6.269912 0.569992 0.569992
A -6.269912 0.569992 1.709976
B -6.269912 0.569992 2.849960
B -6.269912 0.569992 3.989944
A -6.269912 0.569992 5.129928
B -6.269912 0.569992 6.269912
B -6.269912 0.569992 7.409896
B -6.269912 1.709976 8.549879
A -6.269912 1.709976 -7.409896
A -6.269912 1.709976 -6.269912
A -6.269912 1.709976 -5.129928
B -6.269912 1.709976 -3.989944
B -6.269912 1.709976 -2.849960
B -6.269912 1.709976 -1.709976
A -6.269912 1.709976 -0.569992
A -6.269912 1.709976 0.569992
B -6.269912 1.709976 1.709976
B -6.269912 1.709976 2.849960
A -6.269912 1.709976 3.989944
A -6.269912 1.709976 5.129928
A -6.269912 1.709976 6.269912
A -6.269912 1.709976 7.409896
B -6.269912 2.849960 8.549879
A -6.269912 2.849960 -7.409896
B -6.269912 2.849960 -6.269912
B -6.269912 2.849960 -5.129928
A -6.269912 2.849960 -3.989944
A -6.269912 2.849960 -2.849960
B -6.269912 2.849960 -1.709976
A -6.269912 2.849960 -0.569992
A -6.269912 2.849960 0.569992
A -6.269912 2.849960 1.709976
A -6.269912 2.849960 2.849960
B -6.269912 2.849960 3.989944
B -6.269912 2.849960 5.129928
A -6.269912 2.849960 6.269912
A -6.269912 2.849960 7.409896
A -6.269912 3.989944 8.549879
B -6.269912 3.989944 -7.409896
B -6.269912 3.989944 -6.269912
A -6.269912 3.989944 -5.129928
B -6.269912 3.989944 -3.989944
A -6.269912 3.989944 -2.849960
A -6.269912 3.989944 -1.709976
A -6.269912 3.989944 -0.569992
A -6.269912 3.989944 0.569992
A -6.269912 3.989944 1.709976
A -6.269912 3.989944 2.849960
B -6.269912 3.989944 3.989944
B -6.269912 3.989944 5.129928
B -6.269912 3.989944 6.269912
B -6.269912 3.989944 7.409896
A -6.269912 5.129928 8.549879
B -6.269912 5.129928 -7.409896
A -6.269912 5.129928 -6.269912
A -6.269912 5.129928 -5.129928
B -6.269912 5.129928 -3.989944
A -6.269912 5.129928 -2.849960
A -6.269912 5.129928 -1.709976
B -6.269912 5.129928 -0.569992
B -6.269912 5.129928 0.569992
B -6.269912 5.129928 1.709976
B -6.269912 5.129928 2.849960
B -6.269912 5.129928 3.989944
B -6.269912 5.129928 5.129928
A -6.269912 5.129928 6.269912
B -6.269912 5.129928 7.409896
A -6.269912 6.269912 8.549879
B -6.269912 6.269912 -7.409896
B -6.269912 6.269912 -6.269912
B -6.269912 6.269912 -5.129928
A -6.269912 6.269912 -3.989944
B -6.269912 6.269912 -2.849960
A -6.269912 6.269912 -1.709976
A -6.269912 6.269912 -0.569992
B -6.269912 6.269912 0.569992
B -6.269912 6.269912 1.709976
B -6.269912 6.269912 2.849960
A -6.269912 6.269912 3.989944
B -6.269912 6.269912 5.129928
A -6.269912 6.269912 6.269912
A -6.269912 6.269912 7.409896
B -6.269912 7.409896 8.549879
A -6.269912 7.409896 -7.409896
B -6.269912 7.409896 -6.269912
A -6.269912 7.409896 -5.129928
A -6.269912 7.409896 -3.989944
B -6.269912 7.409896 -2.849960
B -6.269912 7.409896 -1.709976
A -6.269912 7.409896 -0.569992
A -6.269912 7.409896 0.569992
B -6.269912 7.409896 1.709976
B -6.269912 7.409896 2.849960
B -6.269912 7.409896 3.989944
A -6.269912 7.409896 5.129928
B -6.269912 7.409896 6.269912
A -6.269912 7.409896 7.409896
B -5.129928 8.549879 8.549879
A -5.129928 8.549879 -7.409896
B -5.129928 8.549879 -6.269912
A -5.129928 8.549879 -5.129928
B -5.129928 8.549879 -3.989944
A -5.129928 8.549879 -2.849960
B -5.129928 8.549879 -1.709976
B -5.129928 8.549879 -0.569992
A -5.129928 8.549879 0.569992
B -5.129928 8.549879 1.709976
A -5.129928 8.549879 2.849960
B -5.129928 8.549879 3.989944
B -5.129928 8.549879 5.129928
A -5.129928 8.549879 6.269912
B -5.129928 8.549879 7.409896
A -5.129928 -7.409896 8.549879
A -5.129928 -7.409896 -7.409896
B -5.129928 -7.409896 -6.269912
B -5.129928 -7.409896 -5.129928
B -5.129928 -7.409896 -3.989944
B -5.129928 -7.409896 -2.849960
B -5.129928 -7.409896 -1.709976
B -5.129928 -7.409896 -0.569992
B -5.129928 -7.409896 0.569992
A -5.129928 -7.409896 1.709976
A -5.129928 -7.409896 2.849960
B -5.129928 -7.409896 3.989944
B -5.129928 -7.409896 5.129928
A -5.129928 -7.409896 6.269912
A -5.129928 -7.409896 7.409896
B -5.129928 -6.269912 8.549879
B -5.129928 -6.269912 -7.409896
B -5.129928 -6.269912 -6.269912
A -5.129928 -6.269912 -5.129928
A -5.129928 -6.269912 -3.989944
B -5.129928 -6.269912 -2.849960
B -5.129928 -6.269912 -1.709976
B -5.129928 -6.269912 -0.569992
B -5.129928 -6.269912 0.569992
B -5.129928 -6.269912 1.709976
B -5.129928 -6.269912 2.849960
B -5.129928 -6.269912 3.989944
B -5.129928 -6.269912 5.129928
A -5.129928 -6.269912 6.269912
A -5.129928 -6.269912 7.409896
A -5.129928 -5.129928 8.549879
B -5.129928 -5.129928 -7.409896
A -5.129928 -5.129928 -6.269912
A -5.129928 -5.129928 -5.129928
B -5.129928 -5.129928 -3.989944
A -5.129928 -5.129928 -2.849960
A -5.129928 -5.129928 -1.709976
B -5.129928 -5.129928 -0.569992
A -5.129928 -5.129928 0.569992
A -5.129928 -5.129928 1.709976
B -5.129928 -5.129928 2.849960
A -5.129928 -5.129928 3.989944
B -5.129928 -5.129928 5.129928
B -5.129928 -5.129928 6.269912
A -5.129928 -5.129928 7.409896
A -5.129928 -3.989944 8.549879
A -5.129928 -3.989944 -7.409896
A -5.129928 -3.989944 -6.269912
B -5.129928 -3.989944 -5.129928
B -5.129928 -3.989944 -3.989944
B -5.129928 -3.989944 -2.849960
A -5.129928 -3.989944 -1.709976
A -5.129928 -3.989944 -0.569992
A -5.129928 -3.989944 0.569992
B -5.129928 -3.989944 1.709976
A -5.129928 -3.989944 2.849960
A -5.129928 -3.989944 3.989944
B -5.129928 -3.989944 5.129928
A -5.129928 -3.989944 6.269912
A -5.129928 -3.989944 7.409896
A -5.129928 -2.849960 8.549879
A -5.129928 -2.849960 -7.409896
A -5.129928 -2.849960 -6.269912
B -5.129928 -2.849960 -5.129928
A -5.129928 -2.849960 -3.989944
A -5.129928 -2.849960 -2.849960
A -5.129928 -2.849960 -1.709976
A -5.129928 -2.849960 -0.569992
B -5.129928 -2.849960 0.569992
A -5.129928 -2.849960 1.709976
B -5.129928 -2.849960 2.849960
B -5.129928 -2.849960 3.989944
B -5.129928 -2.849960 5.129928
A -5.129928 -2.849960 6.269912
A -5.129928 -2.849960 7.409896
B -5.129928 -1.709976 8.549879
B -5.129928 -1.709976 -7.409896
B -5.129928 -1.709976 -6.269912
A -5.129928 -1.709976 -5.129928
B -5.129928 -1.709976 -3.989944
B -5.129928 -1.709976 -2.849960
A -5.129928 -1.709976 -1.709976
B -5.129928 -1.709976 -0.569992
A -5.129928 -1.709976 0.569992
A -5.129928 -1.709976 1.709976
A -5.129928 -1.709976 2.849960
A -5.129928 -1.709976 3.989944
A -5.129928 -1.709976 5.129928
B -5.129928 -1.709976 6.269912
B -5.129928 -1.709976 7.409896
B -5.129928 -0.569992 8.549879
A -5.129928 -0.569992 -7.409896
B -5.129928 -0.569992 -6.269912
A -5.129928 -0.569992 -5.129928
A -5.129928 -0.569992 -3.989944
A -5.129928 -0.569992 -2.849960
A -5.129928 -0.569992 -1.709976
A -5.129928 -0.569992 -0.569992
B -5.129928 -0.569992 0.569992
A -5.129928 -0.569992 1.709976
A -5.129928 -0.569992 2.849960
A -5.129928 -0.569992 3.989944
A -5.129928 -0.569992 5.129928
B -5.129928 -0.569992 6.269912
B -5.129928 -0.569992 7.409896
B -5.129928 0.569992 8.549879
B -5.129928 0.569992 -7.409896
B -5.129928 0.569992 -6.269912
A -5.129928 0.569992 -5.129928
A -5.129928 0.569992 -3.989944
A -5.129928 0.569992 -2.849960
B -5.129928 0.569992 -1.709976
B -5.129928 0.569992 -0.569992
B -5.129928 0.569992 0.569992
A -5.129928 0.569992 1.709976
A -5.129928 0.569992 2.849960
A -5.129928 0.569992 3.989944
B -5.129928 0.569992 5.129928
A -5.129928 0.569992 6.269912
B -5.129928 0.569992 7.409896
A -5.129928 1.709976 8.549879
A -5.129928 1.709976 -7.409896
B -5.129928 1.709976 -6.269912
A -5.129928 1.709976 -5.129928
A -5.129928 1.709976 -3.989944
A -5.129928 1.709976 -2.849960
B -5.129928 1.709976 -1.709976
A -5.129928 1.709976 -0.569992
A -5.129928 1.709976 0.569992
B -5.129928 1.709976 1.709976
A -5.129928 1.709976 2.849960
B -5.129928 1.709976 3.989944
A -5.129928 1.709976 5.129928
B -5.129928 1.709976 6.269912
A -5.129928 1.709976 7.409896
A -5.129928 2.849960 8.549879
A -5.129928 2.849960 -7.409896
A -5.129928 2.849960 -6.269912
B -5.129928 2.849960 -5.129928
B -5.129928 2.849960 -3.989944
B -5.129928 2.849960 -2.849960
B -5.129928 2.849960 -1.709976
A -5.129928 2.849960 -0.569992
A -5.129928 2.849960 0.569992
B -5.129928 2.849960 1.709976
A -5.129928 2.849960 2.849960
B -5.129928 2.849960 3.989944
B -5.129928 2.849960 5.129928
B -5.129928 2.849960 6.269912
A -5.129928 2.849960 7.409896
B -5.129928 3.989944 8.549879
A -5.129928 3.989944 -7.409896
A -5.129928 3.989944 -6.269912
B -5.129928 3.989944 -5.129928
B -5.129928 3.989944 -3.989944
A -5.129928 3.989944 -2.849960
B -5.129928 3.989944 -1.709976
B -5.129928 3.989944 -0.569992
A -5.129928 3.989944 0.569992
B -5.129928 3.989944 1.709976
A -5.129928 3.989944 2.849960
B -5.129928 3.989944 3.989944
B -5.129928 3.989944 5.129928
A -5.129928 3.989944 6.269912
B -5.129928 3.989944 7.409896
A -5.129928 5.129928 8.549879
B -5.129928 5.129928 -7.409896
B -5.129928 5.129928 -6.269912
B -5.129928 5.129928 -5.129928
B -5.129928 5.129928 -3.989944
B -5.129928 5.129928 -2.849960
A -5.129928 5.129928 -1.709976
A -5.129928 5.129928 -0.569992
B -5.129928 5.129928 0.569992
B -5.129928 5.129928 1.709976
B -5.129928 5.129928 2.849960
B -5.129928 5.129928 3.989944
A -5.129928 5.129928 5.129928
A -5.129928 5.129928 6.269912
B -5.129928 5.129928 7.409896
B -5.129928 6.269912 8.549879
B -5.129928 6.269912 -7.409896
A -5.129928 6.269912 -6.269912
A -5.129928 6.269912 -5.129928
B -5.129928 6.269912 -3.989944
B -5.129928 6.269912 -2.849960
B -5.129928 6.269912 -1.709976
A -5.129928 6.269912 -0.569992
A -5.129928 6.269912 0.569992
A -5.129928 6.269912 1.709976
A -5.129928 6.269912 2.849960
B -5.129928 6.269912 3.989944
B -5.129928 6.269912 5.129928
A -5.129928 6.269912 6.269912
B -5.129928 6.269912 7.409896
A -5.129928 7.409896 8.549879
B -5.129928 7.409896 -7.409896
A -5.129928 7.409896 -6.269912
B -5.129928 7.409896 -5.129928
A -5.129928 7.409896 -3.989944
B -5.129928 7.409896 -2.849960
B -5.129928 7.409896 -1.709976
A -5.129928 7.409896 -0.569992
A -5.129928 7.409896 0.569992
B -5.129928 7.409896 1.709976
A -5.129928 7.409896 2.849960
A -5.129928 7.409896 3.989944
B -5.129928 7.409896 5.129928
A -5.129928 7.409896 6.269912
B -5.129928 7.409896 7.409896
B -3.989944 8.549879 8.549879
A -3.989944 8.549879 -7.409896
A -3.989944 8.549879 -6.269912
B -3.989944 8.549879 -5.129928
A -3.989944 8.549879 -3.989944
B -3.989944 8.549879 -2.849960
A -3.989944 8.549879 -1.709976
A -3.989944 8.549879 -0.569992
B -3.989944 8.549879 0.569992
B -3.989944 8.549879 1.709976
A -3.989944 8.549879 2.849960
B -3.989944 8.549879 3.989944
A -3.989944 8.549879 5.129928
B -3.989944 8.549879 6.269912
B -3.989944 8.549879 7.409896
B -3.989944 -7.409896 8.549879
B -3.989944 -7.409896 -7.409896
B -3.989944 -7.409896 -6.269912
A -3.989944 -7.409896 -5.129928
A -3.989944 -7.409896 -3.989944
A -3.989944 -7.409896 -2.849960
B -3.989944 -7.409896 -1.709976
A -3.989944 -7.409896 -0.569992
A -3.989944 -7.409896 0.569992
A -3.989944 -7.409896 1.709976
A -3.989944 -7.409896 2.849960
A -3.989944 -7.409896 3.989944
A -3.989944 -7.409896 5.129928
A -3.989944 -7.409896 6.269912
A -3.989944 -7.409896 7.409896
A -3.989944 -6.269912 8.549879
B -3.989944 -6.269912 -7.409896
B -3.989944 -6.269912 -6.269912
B -3.989944 -6.269912 -5.129928
B -3.989944 -6.269912 -3.989944
A -3.989944 -6.269912 -2.849960
A -3.989944 -6.269912 -1.709976
A -3.989944 -6.269912 -0.569992
B -3.989944 -6.269912 0.569992
A -3.989944 -6.269912 1.709976
B -3.989944 -6.269912 2.849960
A -3.989944 -6.269912 3.989944
B -3.989944 -6.269912 5.129928
B -3.989944 -6.269912 6.269912
A -3.989944 -6.269912 7.409896
B -3.989944 -5.129928 8.549879
A -3.989944 -5.129928 -7.409896
A -3.989944 -5.129928 -6.269912
A -3.989944 -5.129928 -5.129928
B -3.989944 -5.129928 -3.989944
B -3.989944 -5.129928 -2.849960
A -3.989944 -5.129928 -1.709976
A -3.989944 -5.129928 -0.569992
B -3.989944 -5.129928 0.569992
A -3.989944 -5.129928 1.709976
B -3.989944 -5.129928 2.849960
B -3.989944 -5.129928 3.989944
A -3.989944 -5.129928 5.129928
A -3.989944 -5.129928 6.269912
A -3.989944 -5.129928 7.409896
A -3.989944 -3.989944 8.549879
B -3.989944 -3.989944 -7.409896
B -3.989944 -3.989944 -6.269912
B -3.989944 -3.989944 -5.129928
B -3.989944 -3.989944 -3.989944
A -3.989944 -3.989944 -2.849960
A -3.989944 -3.989944 -1.709976
B -3.989944 -3.989944 -0.569992
A -3.989944 -3.989944 0.569992
B -3.989944 -3.989944 1.709976
B -3.989944 -3.989944 2.849960
B -3.989944 -3.989944 3.989944
B -3.989944 -3.989944 5.129928